TACC:  Starting up job 4442081 
TACC:  Starting parallel tasks... 

*************** JDFTx 1.5.0  ***************

Start date and time: Thu Oct  3 11:41:59 2019
Executable /home1/06235/tg855346/jdftx_codes/jdftx-20190827/build/phonon with command-line: -i phonon.in
Running on hosts (process indices):  c506-064.stampede2.tacc.utexas.edu (0-3)  c506-123.stampede2.tacc.utexas.edu (4-7)
Divided in process groups (process indices):  0 (0)  1 (1)  2 (2)  3 (3)  4 (4)  5 (5)  6 (6)  7 (7)
Resource initialization completed at t[s]:      0.00
Run totals: 8 processes, 96 threads, 0 GPUs


Input parsed successfully to the following command list (including defaults):

basis kpoint-dependent
converge-empty-states yes
coords-type Lattice
core-overlap-check vector
coulomb-interaction Periodic
davidson-band-ratio 1.1
dump End State ElecDensity
dump-name totalE.$VAR
dump-only 
elec-cutoff 22 145
elec-eigen-algo Davidson
elec-ex-corr gga-PBE
elec-n-bands 44
electronic-minimize  \
	dirUpdateScheme      FletcherReeves \
	linminMethod         DirUpdateRecommended \
	nIterations          100 \
	history              15 \
	knormThreshold       0 \
	energyDiffThreshold  2e-12 \
	nEnergyDiff          2 \
	alphaTstart          1 \
	alphaTmin            1e-10 \
	updateTestStepSize   yes \
	alphaTreduceFactor   0.1 \
	alphaTincreaseFactor 3 \
	nAlphaAdjustMax      3 \
	wolfeEnergy          0.0001 \
	wolfeGradient        0.9 \
	fdTest               no
exchange-regularization WignerSeitzTruncated
fluid None
fluid-ex-corr lda-TF lda-PZ
fluid-gummel-loop 10 1.000000e-05
fluid-minimize  \
	dirUpdateScheme      PolakRibiere \
	linminMethod         DirUpdateRecommended \
	nIterations          100 \
	history              15 \
	knormThreshold       0 \
	energyDiffThreshold  0 \
	nEnergyDiff          2 \
	alphaTstart          1 \
	alphaTmin            1e-10 \
	updateTestStepSize   yes \
	alphaTreduceFactor   0.1 \
	alphaTincreaseFactor 3 \
	nAlphaAdjustMax      3 \
	wolfeEnergy          0.0001 \
	wolfeGradient        0.9 \
	fdTest               no
fluid-solvent H2O 55.338 ScalarEOS \
	epsBulk 78.4 \
	pMol 0.92466 \
	epsInf 1.77 \
	Pvap 1.06736e-10 \
	sigmaBulk 4.62e-05 \
	Rvdw 2.61727 \
	Res 1.42 \
	tauNuc 343133 \
	poleEl 15 7 1
forces-output-coords Positions
initial-state totalE.$VAR
ion Ga   0.000000000000000   0.000000000000000   0.000000000000000 0
ion As   0.250000000000000   0.250000000000000   0.250000000000000 0
ion-species /home1/06235/tg855346/pseudopotentials/psl/rel-pbe/Ga.rel-pbe-dnl-rrkjus_psl.1.0.0.UPF
ion-species /home1/06235/tg855346/pseudopotentials/psl/rel-pbe/As.rel-pbe-dn-rrkjus_psl.1.0.0.UPF
ion-width 0
ionic-minimize  \
	dirUpdateScheme      L-BFGS \
	linminMethod         DirUpdateRecommended \
	nIterations          0 \
	history              15 \
	knormThreshold       0.0001 \
	energyDiffThreshold  1e-06 \
	nEnergyDiff          2 \
	alphaTstart          1 \
	alphaTmin            1e-10 \
	updateTestStepSize   yes \
	alphaTreduceFactor   0.1 \
	alphaTincreaseFactor 3 \
	nAlphaAdjustMax      3 \
	wolfeEnergy          0.0001 \
	wolfeGradient        0.9 \
	fdTest               no
kpoint   0.000000000000   0.000000000000   0.000000000000  1.00000000000000
kpoint-folding 24 24 24 
latt-move-scale 1 1 1
latt-scale 1 1 1 
lattice Face-Centered Cubic 10.6829
lattice-minimize  \
	dirUpdateScheme      L-BFGS \
	linminMethod         DirUpdateRecommended \
	nIterations          0 \
	history              15 \
	knormThreshold       0 \
	energyDiffThreshold  1e-06 \
	nEnergyDiff          2 \
	alphaTstart          1 \
	alphaTmin            1e-10 \
	updateTestStepSize   yes \
	alphaTreduceFactor   0.1 \
	alphaTincreaseFactor 3 \
	nAlphaAdjustMax      3 \
	wolfeEnergy          0.0001 \
	wolfeGradient        0.9 \
	fdTest               no
lcao-params -1 1e-06 0.001
pcm-variant GLSSA13
phonon  \
	supercell 4 4 4 \
	dr 0.1 \
	collectPerturbations \
	saveHsub yes \
	T 298 \
	Fcut 1e-08 \
	rSmooth 1
spintype spin-orbit
subspace-rotation-factor 1 yes
symmetries automatic
symmetry-threshold 0.0001


########### Unit cell calculation #############

---------- Setting up symmetries ----------

Found 48 point-group symmetries of the bravais lattice
Found 24 space-group symmetries with basis
Applied RMS atom displacement 0 bohrs to make symmetries exact.

---------- Initializing the Grid ----------
R = 
[          0    5.34145    5.34145  ]
[    5.34145          0    5.34145  ]
[    5.34145    5.34145          0  ]
unit cell volume = 304.795
G =
[  -0.588154   0.588154   0.588154  ]
[   0.588154  -0.588154   0.588154  ]
[   0.588154   0.588154  -0.588154  ]
Minimum fftbox size, Smin = [  44  44  44  ]
Chosen fftbox size, S = [  48  48  48  ]

---------- Initializing tighter grid for wavefunction operations ----------
R = 
[          0    5.34145    5.34145  ]
[    5.34145          0    5.34145  ]
[    5.34145    5.34145          0  ]
unit cell volume = 304.795
G =
[  -0.588154   0.588154   0.588154  ]
[   0.588154  -0.588154   0.588154  ]
[   0.588154   0.588154  -0.588154  ]
Minimum fftbox size, Smin = [  32  32  32  ]
Chosen fftbox size, S = [  32  32  32  ]

---------- Exchange Correlation functional ----------
Initalized PBE GGA exchange.
Initalized PBE GGA correlation.

---------- Setting up pseudopotentials ----------
Width of ionic core gaussian charges (only for fluid interactions / plotting) set to 0

Reading pseudopotential file '/home1/06235/tg855346/pseudopotentials/psl/rel-pbe/Ga.rel-pbe-dnl-rrkjus_psl.1.0.0.UPF':
  'Ga' pseudopotential, 'PBE' functional
  Generated using "atomic" code by A. Dal Corso  v.6.1 svn rev. 13369
  Author: ADC  Date:  4Jun2019.
  13 valence electrons, 5 orbitals, 10 projectors, 1205 radial grid points, with lMax = 2
  Transforming core density to a uniform radial grid of dG=0.02 with 2346 points.
  Transforming local potential to a uniform radial grid of dG=0.02 with 2346 points.
  Transforming nonlocal projectors to a uniform radial grid of dG=0.02 with 453 points.
  Transforming density augmentations to a uniform radial grid of dG=0.02 with 2346 points.
    4S    l: 0   occupation:  2.0   eigenvalue: -0.327043
    4P    l: 1   occupation:  1.0   eigenvalue: -0.096365
    4P    l: 1   occupation:  0.0   eigenvalue: -0.092144
    3D    l: 2   occupation:  4.0   eigenvalue: -0.711348
    3D    l: 2   occupation:  6.0   eigenvalue: -0.694390
  Transforming atomic orbitals to a uniform radial grid of dG=0.02 with 453 points.
  WARNING: large normalization error in atomic orbital 1p (integral: 0.921141).
  WARNING: large normalization error in atomic orbital 2p (integral: 0.926860).
  WARNING: large normalization error in atomic orbital 1d (integral: 3.140769).
  WARNING: large normalization error in atomic orbital 2d (integral: 3.175352).
  Core radius for overlap checks: 2.18 bohrs.

Reading pseudopotential file '/home1/06235/tg855346/pseudopotentials/psl/rel-pbe/As.rel-pbe-dn-rrkjus_psl.1.0.0.UPF':
  'As' pseudopotential, 'PBE' functional
  Generated using "atomic" code by A. Dal Corso  v.6.1 svn rev. 13369
  Author: ADC  Date:  4Jun2019.
  15 valence electrons, 5 orbitals, 10 projectors, 1209 radial grid points, with lMax = 2
  Transforming core density to a uniform radial grid of dG=0.02 with 2346 points.
  Transforming local potential to a uniform radial grid of dG=0.02 with 2346 points.
  Transforming nonlocal projectors to a uniform radial grid of dG=0.02 with 453 points.
  Transforming density augmentations to a uniform radial grid of dG=0.02 with 2346 points.
    4S    l: 0   occupation:  2.0   eigenvalue: -0.529616
    4P    l: 1   occupation:  2.0   eigenvalue: -0.195442
    4P    l: 1   occupation:  1.0   eigenvalue: -0.185480
    3D    l: 2   occupation:  4.0   eigenvalue: -1.504478
    3D    l: 2   occupation:  6.0   eigenvalue: -1.477709
  Transforming atomic orbitals to a uniform radial grid of dG=0.02 with 453 points.
  WARNING: large normalization error in atomic orbital 1p (integral: 0.910925).
  WARNING: large normalization error in atomic orbital 2p (integral: 0.920299).
  WARNING: large normalization error in atomic orbital 1d (integral: 3.461474).
  WARNING: large normalization error in atomic orbital 2d (integral: 3.510726).
  Core radius for overlap checks: 1.78 bohrs.

Initialized 2 species with 2 total atoms.

Folded 1 k-points by 24x24x24 to 13824 k-points.

---------- Setting up k-points, bands, fillings ----------
Adding inversion symmetry to k-mesh for non-inversion-symmetric unit cell.
Reduced to 413 k-points under symmetry. 
Computing the number of bands and number of electrons
Calculating initial fillings.
Turning on subspace rotations due to non-scalar fillings.
nElectrons:  28.000000   nBands: 44   nStates: 413

----- Setting up reduced wavefunction bases (one per k-point) -----
average nbasis = 1502.306 , ideal nbasis = 1502.227

---------- Setting up ewald sum ----------
Optimum gaussian width for ewald sums = 2.425994 bohr.
Real space sum over 1331 unit cells with max indices [  5  5  5  ]
Reciprocal space sum over 2197 terms with max indices [  6  6  6  ]

---------- Allocating electronic variables ----------
Initializing wave functions:  reading from 'totalE.wfns'


----- Initializing Supercell corresponding to k-point mesh -----
Lattice vector linear combinations in supercell:
[  24   0   0  ]
[   0  24   0  ]
[   0   0  24  ]
Supercell lattice vectors:
[  0  128.195  128.195  ]
[  128.195  0  128.195  ]
[  128.195  128.195  0  ]

----------- Energy evaluation at fixed state -------------
# Energy components:
   Eewald =      -99.1861145153360866
       EH =       82.8217658570208641
     Eloc =     -183.3259278682465379
      Enl =       21.6834078178834488
      Exc =      -47.9451053385946580
 Exc_core =       16.3921904280458222
       KE =       19.7519815261886471
-------------------------------------
     Etot =     -189.8078020930385321

Fcut=1e-08 reduced nBands from 44 to 28 per unit cell.

------- Configuring supercell and perturbation modes -------

---------- Setting up symmetries ----------

Found 48 point-group symmetries of the bravais lattice
Found 24 space-group symmetries with basis (with translations restricted to unit cells)
Applied RMS atom displacement 0 bohrs to make symmetries exact.

Finding maximally-symmetric orthogonal basis for displacements:
 [ +0.577350 +0.577350 +0.577350 ] |Stabilizer|: 6
 [ -0.816497 +0.408248 +0.408248 ] |Stabilizer|: 2
 [ +0.000000 -0.707107 +0.707107 ] |Stabilizer|: 2

12 signed perturbations of the unit cell reduced to 4 under symmetries:
Ga 0  [ +0.577350 +0.577350 +0.577350 ] 1.500000
Ga 0  [ -0.577350 -0.577350 -0.577350 ] 1.500000
As 0  [ +0.577350 +0.577350 +0.577350 ] 1.500000
As 0  [ -0.577350 -0.577350 -0.577350 ] 1.500000

Calculating unitary rotations of unit cell states under symmetries:
	Matrix elements valid for all available states (all degenerate subspaces are complete).
	RMS unitarity error in valid subspaces: 0.000000e+00

---- Citations for features of the code used in this run ----

   Software package:
      R. Sundararaman, K. Letchworth-Weaver, K.A. Schwarz, D. Gunceler, Y. Ozhabes and T.A. Arias, 'JDFTx: software for joint density-functional theory', SoftwareX 6, 278 (2017)

   gga-PBE exchange-correlation functional:
      J.P. Perdew, K. Burke and M. Ernzerhof, Phys. Rev. Lett. 77, 3865 (1996)

   Total energy minimization:
      T.A. Arias, M.C. Payne and J.D. Joannopoulos, Phys. Rev. Lett. 69, 1077 (1992)

This list may not be complete. Please suggest additional citations or
report any other bugs at https://github.com/shankar1729/jdftx/issues

########### Perturbed supercell calculation 1 of 4 #############

---------- Setting up symmetries ----------

Found 48 point-group symmetries of the bravais lattice
Found 6 space-group symmetries with basis
Applied RMS atom displacement 0 bohrs to make symmetries exact.

---------- Initializing the Grid ----------
R = 
[          0    21.3658    21.3658  ]
[    21.3658          0    21.3658  ]
[    21.3658    21.3658          0  ]
unit cell volume = 19506.9
G =
[  -0.147038   0.147038   0.147038  ]
[   0.147038  -0.147038   0.147038  ]
[   0.147038   0.147038  -0.147038  ]
Minimum fftbox size, Smin = [  164  164  164  ]
Chosen fftbox size, S = [  192  192  192  ]

---------- Initializing tighter grid for wavefunction operations ----------
R = 
[          0    21.3658    21.3658  ]
[    21.3658          0    21.3658  ]
[    21.3658    21.3658          0  ]
unit cell volume = 19506.9
G =
[  -0.147038   0.147038   0.147038  ]
[   0.147038  -0.147038   0.147038  ]
[   0.147038   0.147038  -0.147038  ]
Minimum fftbox size, Smin = [  128  128  128  ]
Chosen fftbox size, S = [  128  128  128  ]

---------- Exchange Correlation functional ----------
Initalized PBE GGA exchange.
Initalized PBE GGA correlation.

---------- Setting up pseudopotentials ----------
Width of ionic core gaussian charges (only for fluid interactions / plotting) set to 0

Reading pseudopotential file '/home1/06235/tg855346/pseudopotentials/psl/rel-pbe/Ga.rel-pbe-dnl-rrkjus_psl.1.0.0.UPF':
  'Ga' pseudopotential, 'PBE' functional
  Generated using "atomic" code by A. Dal Corso  v.6.1 svn rev. 13369
  Author: ADC  Date:  4Jun2019.
  13 valence electrons, 5 orbitals, 10 projectors, 1205 radial grid points, with lMax = 2
  Transforming core density to a uniform radial grid of dG=0.02 with 2346 points.
  Transforming local potential to a uniform radial grid of dG=0.02 with 2346 points.
  Transforming nonlocal projectors to a uniform radial grid of dG=0.02 with 453 points.
  Transforming density augmentations to a uniform radial grid of dG=0.02 with 2346 points.
    4S    l: 0   occupation:  2.0   eigenvalue: -0.327043
    4P    l: 1   occupation:  1.0   eigenvalue: -0.096365
    4P    l: 1   occupation:  0.0   eigenvalue: -0.092144
    3D    l: 2   occupation:  4.0   eigenvalue: -0.711348
    3D    l: 2   occupation:  6.0   eigenvalue: -0.694390
  Transforming atomic orbitals to a uniform radial grid of dG=0.02 with 453 points.
  WARNING: large normalization error in atomic orbital 1p (integral: 0.921141).
  WARNING: large normalization error in atomic orbital 2p (integral: 0.926860).
  WARNING: large normalization error in atomic orbital 1d (integral: 3.140769).
  WARNING: large normalization error in atomic orbital 2d (integral: 3.175352).
  Core radius for overlap checks: 2.18 bohrs.

Reading pseudopotential file '/home1/06235/tg855346/pseudopotentials/psl/rel-pbe/As.rel-pbe-dn-rrkjus_psl.1.0.0.UPF':
  'As' pseudopotential, 'PBE' functional
  Generated using "atomic" code by A. Dal Corso  v.6.1 svn rev. 13369
  Author: ADC  Date:  4Jun2019.
  15 valence electrons, 5 orbitals, 10 projectors, 1209 radial grid points, with lMax = 2
  Transforming core density to a uniform radial grid of dG=0.02 with 2346 points.
  Transforming local potential to a uniform radial grid of dG=0.02 with 2346 points.
  Transforming nonlocal projectors to a uniform radial grid of dG=0.02 with 453 points.
  Transforming density augmentations to a uniform radial grid of dG=0.02 with 2346 points.
    4S    l: 0   occupation:  2.0   eigenvalue: -0.529616
    4P    l: 1   occupation:  2.0   eigenvalue: -0.195442
    4P    l: 1   occupation:  1.0   eigenvalue: -0.185480
    3D    l: 2   occupation:  4.0   eigenvalue: -1.504478
    3D    l: 2   occupation:  6.0   eigenvalue: -1.477709
  Transforming atomic orbitals to a uniform radial grid of dG=0.02 with 453 points.
  WARNING: large normalization error in atomic orbital 1p (integral: 0.910925).
  WARNING: large normalization error in atomic orbital 2p (integral: 0.920299).
  WARNING: large normalization error in atomic orbital 1d (integral: 3.461474).
  WARNING: large normalization error in atomic orbital 2d (integral: 3.510726).
  Core radius for overlap checks: 1.78 bohrs.

Initialized 2 species with 128 total atoms.

Folded 1 k-points by 6x6x6 to 216 k-points.

---------- Setting up k-points, bands, fillings ----------
Adding inversion symmetry to k-mesh for non-inversion-symmetric unit cell.
Reduced to 32 k-points under symmetry. 
Computing the number of bands and number of electrons
Calculating initial fillings.
nElectrons: 1792.000000   nBands: 1792   nStates: 32

----- Setting up reduced wavefunction bases (one per k-point) -----
average nbasis = 96147.588 , ideal nbasis = 96142.518

---------- Setting up ewald sum ----------
Optimum gaussian width for ewald sums = 4.851988 bohr.
Real space sum over 343 unit cells with max indices [  3  3  3  ]
Reciprocal space sum over 12167 terms with max indices [  11  11  11  ]

---------- Allocating electronic variables ----------
Reading "Vscloc" from file 'totalE.phonon.1.Vscloc' ... done
Skipped wave function initialization.

Reading 'totalE.phonon.1.dforces' ... done.
Applied translational invariance (net force) relative correction: 0.000494754

########### Perturbed supercell calculation 2 of 4 #############

---------- Setting up symmetries ----------

Found 48 point-group symmetries of the bravais lattice
Found 6 space-group symmetries with basis
Applied RMS atom displacement 0 bohrs to make symmetries exact.

---------- Initializing the Grid ----------
R = 
[          0    21.3658    21.3658  ]
[    21.3658          0    21.3658  ]
[    21.3658    21.3658          0  ]
unit cell volume = 19506.9
G =
[  -0.147038   0.147038   0.147038  ]
[   0.147038  -0.147038   0.147038  ]
[   0.147038   0.147038  -0.147038  ]
Minimum fftbox size, Smin = [  164  164  164  ]
Chosen fftbox size, S = [  192  192  192  ]

---------- Initializing tighter grid for wavefunction operations ----------
R = 
[          0    21.3658    21.3658  ]
[    21.3658          0    21.3658  ]
[    21.3658    21.3658          0  ]
unit cell volume = 19506.9
G =
[  -0.147038   0.147038   0.147038  ]
[   0.147038  -0.147038   0.147038  ]
[   0.147038   0.147038  -0.147038  ]
Minimum fftbox size, Smin = [  128  128  128  ]
Chosen fftbox size, S = [  128  128  128  ]

---------- Exchange Correlation functional ----------
Initalized PBE GGA exchange.
Initalized PBE GGA correlation.

---------- Setting up pseudopotentials ----------
Width of ionic core gaussian charges (only for fluid interactions / plotting) set to 0

Reading pseudopotential file '/home1/06235/tg855346/pseudopotentials/psl/rel-pbe/Ga.rel-pbe-dnl-rrkjus_psl.1.0.0.UPF':
  'Ga' pseudopotential, 'PBE' functional
  Generated using "atomic" code by A. Dal Corso  v.6.1 svn rev. 13369
  Author: ADC  Date:  4Jun2019.
  13 valence electrons, 5 orbitals, 10 projectors, 1205 radial grid points, with lMax = 2
  Transforming core density to a uniform radial grid of dG=0.02 with 2346 points.
  Transforming local potential to a uniform radial grid of dG=0.02 with 2346 points.
  Transforming nonlocal projectors to a uniform radial grid of dG=0.02 with 453 points.
  Transforming density augmentations to a uniform radial grid of dG=0.02 with 2346 points.
    4S    l: 0   occupation:  2.0   eigenvalue: -0.327043
    4P    l: 1   occupation:  1.0   eigenvalue: -0.096365
    4P    l: 1   occupation:  0.0   eigenvalue: -0.092144
    3D    l: 2   occupation:  4.0   eigenvalue: -0.711348
    3D    l: 2   occupation:  6.0   eigenvalue: -0.694390
  Transforming atomic orbitals to a uniform radial grid of dG=0.02 with 453 points.
  WARNING: large normalization error in atomic orbital 1p (integral: 0.921141).
  WARNING: large normalization error in atomic orbital 2p (integral: 0.926860).
  WARNING: large normalization error in atomic orbital 1d (integral: 3.140769).
  WARNING: large normalization error in atomic orbital 2d (integral: 3.175352).
  Core radius for overlap checks: 2.18 bohrs.

Reading pseudopotential file '/home1/06235/tg855346/pseudopotentials/psl/rel-pbe/As.rel-pbe-dn-rrkjus_psl.1.0.0.UPF':
  'As' pseudopotential, 'PBE' functional
  Generated using "atomic" code by A. Dal Corso  v.6.1 svn rev. 13369
  Author: ADC  Date:  4Jun2019.
  15 valence electrons, 5 orbitals, 10 projectors, 1209 radial grid points, with lMax = 2
  Transforming core density to a uniform radial grid of dG=0.02 with 2346 points.
  Transforming local potential to a uniform radial grid of dG=0.02 with 2346 points.
  Transforming nonlocal projectors to a uniform radial grid of dG=0.02 with 453 points.
  Transforming density augmentations to a uniform radial grid of dG=0.02 with 2346 points.
    4S    l: 0   occupation:  2.0   eigenvalue: -0.529616
    4P    l: 1   occupation:  2.0   eigenvalue: -0.195442
    4P    l: 1   occupation:  1.0   eigenvalue: -0.185480
    3D    l: 2   occupation:  4.0   eigenvalue: -1.504478
    3D    l: 2   occupation:  6.0   eigenvalue: -1.477709
  Transforming atomic orbitals to a uniform radial grid of dG=0.02 with 453 points.
  WARNING: large normalization error in atomic orbital 1p (integral: 0.910925).
  WARNING: large normalization error in atomic orbital 2p (integral: 0.920299).
  WARNING: large normalization error in atomic orbital 1d (integral: 3.461474).
  WARNING: large normalization error in atomic orbital 2d (integral: 3.510726).
  Core radius for overlap checks: 1.78 bohrs.

Initialized 2 species with 128 total atoms.

Folded 1 k-points by 6x6x6 to 216 k-points.

---------- Setting up k-points, bands, fillings ----------
Adding inversion symmetry to k-mesh for non-inversion-symmetric unit cell.
Reduced to 32 k-points under symmetry. 
Computing the number of bands and number of electrons
Calculating initial fillings.
nElectrons: 1792.000000   nBands: 1792   nStates: 32

----- Setting up reduced wavefunction bases (one per k-point) -----
average nbasis = 96147.588 , ideal nbasis = 96142.518

---------- Setting up ewald sum ----------
Optimum gaussian width for ewald sums = 4.851988 bohr.
Real space sum over 343 unit cells with max indices [  3  3  3  ]
Reciprocal space sum over 12167 terms with max indices [  11  11  11  ]

---------- Allocating electronic variables ----------
Reading "Vscloc" from file 'totalE.phonon.2.Vscloc' ... done
Skipped wave function initialization.

Reading 'totalE.phonon.2.dforces' ... done.
Applied translational invariance (net force) relative correction: 0.000379261

########### Perturbed supercell calculation 3 of 4 #############

---------- Setting up symmetries ----------

Found 48 point-group symmetries of the bravais lattice
Found 6 space-group symmetries with basis
Applied RMS atom displacement 0 bohrs to make symmetries exact.

---------- Initializing the Grid ----------
R = 
[          0    21.3658    21.3658  ]
[    21.3658          0    21.3658  ]
[    21.3658    21.3658          0  ]
unit cell volume = 19506.9
G =
[  -0.147038   0.147038   0.147038  ]
[   0.147038  -0.147038   0.147038  ]
[   0.147038   0.147038  -0.147038  ]
Minimum fftbox size, Smin = [  164  164  164  ]
Chosen fftbox size, S = [  192  192  192  ]

---------- Initializing tighter grid for wavefunction operations ----------
R = 
[          0    21.3658    21.3658  ]
[    21.3658          0    21.3658  ]
[    21.3658    21.3658          0  ]
unit cell volume = 19506.9
G =
[  -0.147038   0.147038   0.147038  ]
[   0.147038  -0.147038   0.147038  ]
[   0.147038   0.147038  -0.147038  ]
Minimum fftbox size, Smin = [  128  128  128  ]
Chosen fftbox size, S = [  128  128  128  ]

---------- Exchange Correlation functional ----------
Initalized PBE GGA exchange.
Initalized PBE GGA correlation.

---------- Setting up pseudopotentials ----------
Width of ionic core gaussian charges (only for fluid interactions / plotting) set to 0

Reading pseudopotential file '/home1/06235/tg855346/pseudopotentials/psl/rel-pbe/Ga.rel-pbe-dnl-rrkjus_psl.1.0.0.UPF':
  'Ga' pseudopotential, 'PBE' functional
  Generated using "atomic" code by A. Dal Corso  v.6.1 svn rev. 13369
  Author: ADC  Date:  4Jun2019.
  13 valence electrons, 5 orbitals, 10 projectors, 1205 radial grid points, with lMax = 2
  Transforming core density to a uniform radial grid of dG=0.02 with 2346 points.
  Transforming local potential to a uniform radial grid of dG=0.02 with 2346 points.
  Transforming nonlocal projectors to a uniform radial grid of dG=0.02 with 453 points.
  Transforming density augmentations to a uniform radial grid of dG=0.02 with 2346 points.
    4S    l: 0   occupation:  2.0   eigenvalue: -0.327043
    4P    l: 1   occupation:  1.0   eigenvalue: -0.096365
    4P    l: 1   occupation:  0.0   eigenvalue: -0.092144
    3D    l: 2   occupation:  4.0   eigenvalue: -0.711348
    3D    l: 2   occupation:  6.0   eigenvalue: -0.694390
  Transforming atomic orbitals to a uniform radial grid of dG=0.02 with 453 points.
  WARNING: large normalization error in atomic orbital 1p (integral: 0.921141).
  WARNING: large normalization error in atomic orbital 2p (integral: 0.926860).
  WARNING: large normalization error in atomic orbital 1d (integral: 3.140769).
  WARNING: large normalization error in atomic orbital 2d (integral: 3.175352).
  Core radius for overlap checks: 2.18 bohrs.

Reading pseudopotential file '/home1/06235/tg855346/pseudopotentials/psl/rel-pbe/As.rel-pbe-dn-rrkjus_psl.1.0.0.UPF':
  'As' pseudopotential, 'PBE' functional
  Generated using "atomic" code by A. Dal Corso  v.6.1 svn rev. 13369
  Author: ADC  Date:  4Jun2019.
  15 valence electrons, 5 orbitals, 10 projectors, 1209 radial grid points, with lMax = 2
  Transforming core density to a uniform radial grid of dG=0.02 with 2346 points.
  Transforming local potential to a uniform radial grid of dG=0.02 with 2346 points.
  Transforming nonlocal projectors to a uniform radial grid of dG=0.02 with 453 points.
  Transforming density augmentations to a uniform radial grid of dG=0.02 with 2346 points.
    4S    l: 0   occupation:  2.0   eigenvalue: -0.529616
    4P    l: 1   occupation:  2.0   eigenvalue: -0.195442
    4P    l: 1   occupation:  1.0   eigenvalue: -0.185480
    3D    l: 2   occupation:  4.0   eigenvalue: -1.504478
    3D    l: 2   occupation:  6.0   eigenvalue: -1.477709
  Transforming atomic orbitals to a uniform radial grid of dG=0.02 with 453 points.
  WARNING: large normalization error in atomic orbital 1p (integral: 0.910925).
  WARNING: large normalization error in atomic orbital 2p (integral: 0.920299).
  WARNING: large normalization error in atomic orbital 1d (integral: 3.461474).
  WARNING: large normalization error in atomic orbital 2d (integral: 3.510726).
  Core radius for overlap checks: 1.78 bohrs.

Initialized 2 species with 128 total atoms.

Folded 1 k-points by 6x6x6 to 216 k-points.

---------- Setting up k-points, bands, fillings ----------
Adding inversion symmetry to k-mesh for non-inversion-symmetric unit cell.
Reduced to 32 k-points under symmetry. 
Computing the number of bands and number of electrons
Calculating initial fillings.
nElectrons: 1792.000000   nBands: 1792   nStates: 32

----- Setting up reduced wavefunction bases (one per k-point) -----
average nbasis = 96147.588 , ideal nbasis = 96142.518

---------- Setting up ewald sum ----------
Optimum gaussian width for ewald sums = 4.851988 bohr.
Real space sum over 343 unit cells with max indices [  3  3  3  ]
Reciprocal space sum over 12167 terms with max indices [  11  11  11  ]

---------- Allocating electronic variables ----------
Reading "Vscloc" from file 'totalE.phonon.3.Vscloc' ... done
Skipped wave function initialization.

Reading 'totalE.phonon.3.dforces' ... done.
Applied translational invariance (net force) relative correction: 0.000423466

########### Perturbed supercell calculation 4 of 4 #############

---------- Setting up symmetries ----------

Found 48 point-group symmetries of the bravais lattice
Found 6 space-group symmetries with basis
Applied RMS atom displacement 0 bohrs to make symmetries exact.

---------- Initializing the Grid ----------
R = 
[          0    21.3658    21.3658  ]
[    21.3658          0    21.3658  ]
[    21.3658    21.3658          0  ]
unit cell volume = 19506.9
G =
[  -0.147038   0.147038   0.147038  ]
[   0.147038  -0.147038   0.147038  ]
[   0.147038   0.147038  -0.147038  ]
Minimum fftbox size, Smin = [  164  164  164  ]
Chosen fftbox size, S = [  192  192  192  ]

---------- Initializing tighter grid for wavefunction operations ----------
R = 
[          0    21.3658    21.3658  ]
[    21.3658          0    21.3658  ]
[    21.3658    21.3658          0  ]
unit cell volume = 19506.9
G =
[  -0.147038   0.147038   0.147038  ]
[   0.147038  -0.147038   0.147038  ]
[   0.147038   0.147038  -0.147038  ]
Minimum fftbox size, Smin = [  128  128  128  ]
Chosen fftbox size, S = [  128  128  128  ]

---------- Exchange Correlation functional ----------
Initalized PBE GGA exchange.
Initalized PBE GGA correlation.

---------- Setting up pseudopotentials ----------
Width of ionic core gaussian charges (only for fluid interactions / plotting) set to 0

Reading pseudopotential file '/home1/06235/tg855346/pseudopotentials/psl/rel-pbe/Ga.rel-pbe-dnl-rrkjus_psl.1.0.0.UPF':
  'Ga' pseudopotential, 'PBE' functional
  Generated using "atomic" code by A. Dal Corso  v.6.1 svn rev. 13369
  Author: ADC  Date:  4Jun2019.
  13 valence electrons, 5 orbitals, 10 projectors, 1205 radial grid points, with lMax = 2
  Transforming core density to a uniform radial grid of dG=0.02 with 2346 points.
  Transforming local potential to a uniform radial grid of dG=0.02 with 2346 points.
  Transforming nonlocal projectors to a uniform radial grid of dG=0.02 with 453 points.
  Transforming density augmentations to a uniform radial grid of dG=0.02 with 2346 points.
    4S    l: 0   occupation:  2.0   eigenvalue: -0.327043
    4P    l: 1   occupation:  1.0   eigenvalue: -0.096365
    4P    l: 1   occupation:  0.0   eigenvalue: -0.092144
    3D    l: 2   occupation:  4.0   eigenvalue: -0.711348
    3D    l: 2   occupation:  6.0   eigenvalue: -0.694390
  Transforming atomic orbitals to a uniform radial grid of dG=0.02 with 453 points.
  WARNING: large normalization error in atomic orbital 1p (integral: 0.921141).
  WARNING: large normalization error in atomic orbital 2p (integral: 0.926860).
  WARNING: large normalization error in atomic orbital 1d (integral: 3.140769).
  WARNING: large normalization error in atomic orbital 2d (integral: 3.175352).
  Core radius for overlap checks: 2.18 bohrs.

Reading pseudopotential file '/home1/06235/tg855346/pseudopotentials/psl/rel-pbe/As.rel-pbe-dn-rrkjus_psl.1.0.0.UPF':
  'As' pseudopotential, 'PBE' functional
  Generated using "atomic" code by A. Dal Corso  v.6.1 svn rev. 13369
  Author: ADC  Date:  4Jun2019.
  15 valence electrons, 5 orbitals, 10 projectors, 1209 radial grid points, with lMax = 2
  Transforming core density to a uniform radial grid of dG=0.02 with 2346 points.
  Transforming local potential to a uniform radial grid of dG=0.02 with 2346 points.
  Transforming nonlocal projectors to a uniform radial grid of dG=0.02 with 453 points.
  Transforming density augmentations to a uniform radial grid of dG=0.02 with 2346 points.
    4S    l: 0   occupation:  2.0   eigenvalue: -0.529616
    4P    l: 1   occupation:  2.0   eigenvalue: -0.195442
    4P    l: 1   occupation:  1.0   eigenvalue: -0.185480
    3D    l: 2   occupation:  4.0   eigenvalue: -1.504478
    3D    l: 2   occupation:  6.0   eigenvalue: -1.477709
  Transforming atomic orbitals to a uniform radial grid of dG=0.02 with 453 points.
  WARNING: large normalization error in atomic orbital 1p (integral: 0.910925).
  WARNING: large normalization error in atomic orbital 2p (integral: 0.920299).
  WARNING: large normalization error in atomic orbital 1d (integral: 3.461474).
  WARNING: large normalization error in atomic orbital 2d (integral: 3.510726).
  Core radius for overlap checks: 1.78 bohrs.

Initialized 2 species with 128 total atoms.

Folded 1 k-points by 6x6x6 to 216 k-points.

---------- Setting up k-points, bands, fillings ----------
Adding inversion symmetry to k-mesh for non-inversion-symmetric unit cell.
Reduced to 32 k-points under symmetry. 
Computing the number of bands and number of electrons
Calculating initial fillings.
nElectrons: 1792.000000   nBands: 1792   nStates: 32

----- Setting up reduced wavefunction bases (one per k-point) -----
average nbasis = 96147.588 , ideal nbasis = 96142.518

---------- Setting up ewald sum ----------
Optimum gaussian width for ewald sums = 4.851988 bohr.
Real space sum over 343 unit cells with max indices [  3  3  3  ]
Reciprocal space sum over 12167 terms with max indices [  11  11  11  ]

---------- Allocating electronic variables ----------
Reading "Vscloc" from file 'totalE.phonon.4.Vscloc' ... done
Skipped wave function initialization.

Reading 'totalE.phonon.4.dforces' ... done.
Applied translational invariance (net force) relative correction: 0.000318394

Refining force matrix in reciprocal space:
	Corrected hermiticity relative error: 0.000185834
	Corrected translational invariance relative error: 4.81165e-06

Dumping 'totalE.phononCellMap' ... done.
Dumping 'totalE.phononCellWeights'... done.

Finalizing force matrix in real space:
	Corrected gamma-point derivative relative error: 4.49024e-17
	Hermiticity relative error: 7.8371e-16
	Translational invariance relative error: 7.25071e-16

Dumping 'totalE.phononOmegaSq' ... done.
Dumping 'totalE.phononBasis' ... done.
Dumping 'totalE.phononHsub' ... done.

Phonon free energy components (per unit cell) at T = 298 K:
	ZPE:          0.002473
	Evib:         0.006087
	TSvib:        0.007437
	Avib:        -0.001350

End date and time: Thu Oct  3 11:46:44 2019  (Duration: 0-0:04:44.70)
Done!

PROFILER:             augmentDensityGrid     0.360316 +/-     0.342747 s,    2 calls,      0.720633 s total
PROFILER:         augmentDensityGridGrad     4.541996 +/-     3.199970 s,   12 calls,     54.503952 s total
PROFILER:        augmentDensitySpherical     0.000465 +/-     0.000054 s,  102 calls,      0.047418 s total
PROFILER:    augmentDensitySphericalGrad     0.008504 +/-     0.014339 s,  268 calls,      2.279013 s total
PROFILER:                 augmentOverlap     0.002105 +/-     0.002977 s,  486 calls,      1.022875 s total
PROFILER:                     changeGrid     0.002479 +/-     0.003770 s,  134 calls,      0.332212 s total
PROFILER:                     diagouterI     0.006442 +/-     0.018300 s,   51 calls,      0.328543 s total
PROFILER:              EdensityAndVscloc     1.371687 +/-     0.000000 s,    1 calls,      1.371687 s total
PROFILER:                     EnlAndGrad     0.001638 +/-     0.002744 s,  268 calls,      0.439046 s total
PROFILER:            ExCorrCommunication     0.101698 +/-     0.260468 s,   19 calls,      1.932254 s total
PROFILER:               ExCorrFunctional     0.008332 +/-     0.008335 s,    8 calls,      0.066659 s total
PROFILER:                    ExCorrTotal     3.842556 +/-     3.129426 s,    8 calls,     30.740450 s total
PROFILER:                   Idag_DiagV_I     0.710107 +/-     1.478670 s,   83 calls,     58.938893 s total
PROFILER:            matrix::diagonalize     0.000027 +/-     0.000192 s, 7937 calls,      0.211327 s total
PROFILER:                    matrix::set     0.000015 +/-     0.000070 s, 428994 calls,      6.412159 s total
PROFILER:       phonon::getPerturbedHsub    31.513837 +/-     0.496852 s,    4 calls,    126.055349 s total
PROFILER:            phonon::setSupState     0.003344 +/-     0.001017 s,    4 calls,      0.013375 s total
PROFILER:     RadialFunctionR::transform     0.000851 +/-     0.001906 s, 1230 calls,      1.046295 s total
PROFILER:                    reduceKmesh     0.020423 +/-     0.015536 s,    5 calls,      0.102115 s total
PROFILER:                            Y*M     0.036927 +/-     0.118689 s,  703 calls,     25.959356 s total
PROFILER:                          Y1^Y2     0.004870 +/-     0.032819 s, 3364 calls,     16.383267 s total

MEMUSAGE:                   ColumnBundle     7.679321 GB
MEMUSAGE:             complexScalarField     0.003296 GB
MEMUSAGE:        complexScalarFieldTilde     0.375000 GB
MEMUSAGE:                    IndexArrays     0.088246 GB
MEMUSAGE:                         matrix     1.265476 GB
MEMUSAGE:                           misc     0.326767 GB
MEMUSAGE:                    ScalarField     0.214233 GB
MEMUSAGE:               ScalarFieldTilde     0.214851 GB
MEMUSAGE:                          Total     9.178641 GB
TACC:  Shutdown complete. Exiting. 
