
*************** JDFTx 1.4.2 (git hash 09de4368) ***************

Start date and time: Thu Jun  6 01:21:32 2019
Executable /sdcc/u/jxuucsc/jdftx_codes/jdftx/build/phonon with command-line: -i phonon-scf.in
Running on hosts (process indices):  ichost125.sdcc.bnl.local (0-1)  ichost126.sdcc.bnl.local (2-3)  ichost127.sdcc.bnl.local (4-5)  ichost128.sdcc.bnl.local (6-7)  ichost131.sdcc.bnl.local (8-9)  ichost132.sdcc.bnl.local (10-11)  ichost133.sdcc.bnl.local (12-13)  ichost134.sdcc.bnl.local (14-15)  ichost135.sdcc.bnl.local (16-17)  ichost136.sdcc.bnl.local (18-19)  ichost137.sdcc.bnl.local (20-21)  ichost139.sdcc.bnl.local (22-23)  ichost141.sdcc.bnl.local (24-25)  ichost142.sdcc.bnl.local (26-27)  ichost143.sdcc.bnl.local (28-29)  ichost144.sdcc.bnl.local (30-31)
Divided in process groups (process indices):  0 (0)  1 (1)  2 (2)  3 (3)  4 (4)  5 (5)  6 (6)  7 (7)  8 (8)  9 (9)  10 (10)  11 (11)  12 (12)  13 (13)  14 (14)  15 (15)  16 (16)  17 (17)  18 (18)  19 (19)  20 (20)  21 (21)  22 (22)  23 (23)  24 (24)  25 (25)  26 (26)  27 (27)  28 (28)  29 (29)  30 (30)  31 (31)
Resource initialization completed at t[s]:      0.16
Run totals: 32 processes, 576 threads, 0 GPUs


Input parsed successfully to the following command list (including defaults):

basis kpoint-dependent
converge-empty-states yes
coords-type Lattice
core-overlap-check vector
coulomb-interaction Periodic
davidson-band-ratio 1.1
dump End State ElecDensity
dump-name totalE.$VAR
dump-only 
elec-cutoff 22 145
elec-eigen-algo Davidson
elec-ex-corr gga-PBE
elec-n-bands 44
electronic-minimize  \
	dirUpdateScheme      FletcherReeves \
	linminMethod         DirUpdateRecommended \
	nIterations          100 \
	history              15 \
	knormThreshold       0 \
	energyDiffThreshold  1e-08 \
	nEnergyDiff          2 \
	alphaTstart          1 \
	alphaTmin            1e-10 \
	updateTestStepSize   yes \
	alphaTreduceFactor   0.1 \
	alphaTincreaseFactor 3 \
	nAlphaAdjustMax      3 \
	wolfeEnergy          0.0001 \
	wolfeGradient        0.9 \
	fdTest               no
electronic-scf  \
	nIterations	50 \
	energyDiffThreshold	2e-09 \
	residualThreshold	1e-07 \
	mixFraction	0.5 \
	qMetric	0.8 \
	history	10 \
	nEigSteps	2 \
	eigDiffThreshold	1e-08 \
	mixedVariable	Density \
	qKerker	0.8 \
	qKappa	-1 \
	verbose	no \
	mixFractionMag	1.5
exchange-regularization WignerSeitzTruncated
fluid None
fluid-ex-corr lda-TF lda-PZ
fluid-gummel-loop 10 1.000000e-05
fluid-minimize  \
	dirUpdateScheme      PolakRibiere \
	linminMethod         DirUpdateRecommended \
	nIterations          100 \
	history              15 \
	knormThreshold       0 \
	energyDiffThreshold  0 \
	nEnergyDiff          2 \
	alphaTstart          1 \
	alphaTmin            1e-10 \
	updateTestStepSize   yes \
	alphaTreduceFactor   0.1 \
	alphaTincreaseFactor 3 \
	nAlphaAdjustMax      3 \
	wolfeEnergy          0.0001 \
	wolfeGradient        0.9 \
	fdTest               no
fluid-solvent H2O 55.338 ScalarEOS \
	epsBulk 78.4 \
	pMol 0.92466 \
	epsInf 1.77 \
	Pvap 1.06736e-10 \
	sigmaBulk 4.62e-05 \
	Rvdw 2.61727 \
	Res 1.42 \
	tauNuc 343133 \
	poleEl 15 7 1
forces-output-coords Positions
initial-state totalE.$VAR
ion Ga   0.000000000000000   0.000000000000000   0.000000000000000 0
ion As   0.250000000000000   0.250000000000000   0.250000000000000 0
ion-species /sdcc/u/jxuucsc/pseudopotentials/psl1.0/rel-pbe/Ga.rel-pbe-dnl-rrkjus_psl.1.0.0.UPF
ion-species /sdcc/u/jxuucsc/pseudopotentials/psl1.0/rel-pbe/As.rel-pbe-dn-rrkjus_psl.1.0.0.UPF
ion-width 0
ionic-minimize  \
	dirUpdateScheme      L-BFGS \
	linminMethod         DirUpdateRecommended \
	nIterations          0 \
	history              15 \
	knormThreshold       0.0001 \
	energyDiffThreshold  1e-06 \
	nEnergyDiff          2 \
	alphaTstart          1 \
	alphaTmin            1e-10 \
	updateTestStepSize   yes \
	alphaTreduceFactor   0.1 \
	alphaTincreaseFactor 3 \
	nAlphaAdjustMax      3 \
	wolfeEnergy          0.0001 \
	wolfeGradient        0.9 \
	fdTest               no
kpoint   0.000000000000   0.000000000000   0.000000000000  1.00000000000000
kpoint-folding 24 24 24 
latt-move-scale 1 1 1
latt-scale 1 1 1 
lattice Face-Centered Cubic 10.6829
lattice-minimize  \
	dirUpdateScheme      L-BFGS \
	linminMethod         DirUpdateRecommended \
	nIterations          0 \
	history              15 \
	knormThreshold       0 \
	energyDiffThreshold  1e-06 \
	nEnergyDiff          2 \
	alphaTstart          1 \
	alphaTmin            1e-10 \
	updateTestStepSize   yes \
	alphaTreduceFactor   0.1 \
	alphaTincreaseFactor 3 \
	nAlphaAdjustMax      3 \
	wolfeEnergy          0.0001 \
	wolfeGradient        0.9 \
	fdTest               no
lcao-params -1 1e-06 0.001
pcm-variant GLSSA13
phonon  \
	supercell 4 4 4 \
	dr 0.1 \
	iPerturbation 1 \
	saveHsub yes \
	T 298 \
	Fcut 1e-08 \
	rSmooth 1
spintype spin-orbit
subspace-rotation-factor 1 yes
symmetries automatic
symmetry-threshold 0.0001


########### Unit cell calculation #############

---------- Setting up symmetries ----------

Found 48 point-group symmetries of the bravais lattice
Found 24 space-group symmetries with basis
Applied RMS atom displacement 0 bohrs to make symmetries exact.

---------- Initializing the Grid ----------
R = 
[          0    5.34145    5.34145  ]
[    5.34145          0    5.34145  ]
[    5.34145    5.34145          0  ]
unit cell volume = 304.795
G =
[  -0.588154   0.588154   0.588154  ]
[   0.588154  -0.588154   0.588154  ]
[   0.588154   0.588154  -0.588154  ]
Minimum fftbox size, Smin = [  44  44  44  ]
Chosen fftbox size, S = [  48  48  48  ]

---------- Initializing tighter grid for wavefunction operations ----------
R = 
[          0    5.34145    5.34145  ]
[    5.34145          0    5.34145  ]
[    5.34145    5.34145          0  ]
unit cell volume = 304.795
G =
[  -0.588154   0.588154   0.588154  ]
[   0.588154  -0.588154   0.588154  ]
[   0.588154   0.588154  -0.588154  ]
Minimum fftbox size, Smin = [  32  32  32  ]
Chosen fftbox size, S = [  32  32  32  ]

---------- Exchange Correlation functional ----------
Initalized PBE GGA exchange.
Initalized PBE GGA correlation.

---------- Setting up pseudopotentials ----------
Width of ionic core gaussian charges (only for fluid interactions / plotting) set to 0

Reading pseudopotential file '/sdcc/u/jxuucsc/pseudopotentials/psl1.0/rel-pbe/Ga.rel-pbe-dnl-rrkjus_psl.1.0.0.UPF':
  'Ga' pseudopotential, 'PBE' functional
  Generated using "atomic" code by A. Dal Corso  v.6.1
  Author: ADC  Date:  4Jun2019.
  13 valence electrons, 5 orbitals, 10 projectors, 1205 radial grid points, with lMax = 2
  Transforming core density to a uniform radial grid of dG=0.02 with 2346 points.
  Transforming local potential to a uniform radial grid of dG=0.02 with 2346 points.
  Transforming nonlocal projectors to a uniform radial grid of dG=0.02 with 453 points.
  Transforming density augmentations to a uniform radial grid of dG=0.02 with 2346 points.
    4S    l: 0   occupation:  2.0   eigenvalue: -0.327043
    4P    l: 1   occupation:  1.0   eigenvalue: -0.096365
    4P    l: 1   occupation:  0.0   eigenvalue: -0.092144
    3D    l: 2   occupation:  4.0   eigenvalue: -0.711348
    3D    l: 2   occupation:  6.0   eigenvalue: -0.694390
  Transforming atomic orbitals to a uniform radial grid of dG=0.02 with 453 points.
  WARNING: large normalization error in atomic orbital 1p (integral: 0.921141).
  WARNING: large normalization error in atomic orbital 2p (integral: 0.926860).
  WARNING: large normalization error in atomic orbital 1d (integral: 3.140769).
  WARNING: large normalization error in atomic orbital 2d (integral: 3.175352).
  Core radius for overlap checks: 2.18 bohrs.

Reading pseudopotential file '/sdcc/u/jxuucsc/pseudopotentials/psl1.0/rel-pbe/As.rel-pbe-dn-rrkjus_psl.1.0.0.UPF':
  'As' pseudopotential, 'PBE' functional
  Generated using "atomic" code by A. Dal Corso  v.6.1
  Author: ADC  Date:  4Jun2019.
  15 valence electrons, 5 orbitals, 10 projectors, 1209 radial grid points, with lMax = 2
  Transforming core density to a uniform radial grid of dG=0.02 with 2346 points.
  Transforming local potential to a uniform radial grid of dG=0.02 with 2346 points.
  Transforming nonlocal projectors to a uniform radial grid of dG=0.02 with 453 points.
  Transforming density augmentations to a uniform radial grid of dG=0.02 with 2346 points.
    4S    l: 0   occupation:  2.0   eigenvalue: -0.529616
    4P    l: 1   occupation:  2.0   eigenvalue: -0.195442
    4P    l: 1   occupation:  1.0   eigenvalue: -0.185480
    3D    l: 2   occupation:  4.0   eigenvalue: -1.504478
    3D    l: 2   occupation:  6.0   eigenvalue: -1.477709
  Transforming atomic orbitals to a uniform radial grid of dG=0.02 with 453 points.
  WARNING: large normalization error in atomic orbital 1p (integral: 0.910925).
  WARNING: large normalization error in atomic orbital 2p (integral: 0.920299).
  WARNING: large normalization error in atomic orbital 1d (integral: 3.461474).
  WARNING: large normalization error in atomic orbital 2d (integral: 3.510726).
  Core radius for overlap checks: 1.78 bohrs.

Initialized 2 species with 2 total atoms.

Folded 1 k-points by 24x24x24 to 13824 k-points.

---------- Setting up k-points, bands, fillings ----------
Adding inversion symmetry to k-mesh for non-inversion-symmetric unit cell.
Reduced to 413 k-points under symmetry. 
Computing the number of bands and number of electrons
Calculating initial fillings.
nElectrons:  28.000000   nBands: 44   nStates: 413

----- Setting up reduced wavefunction bases (one per k-point) -----
average nbasis = 1502.306 , ideal nbasis = 1502.227

---------- Setting up ewald sum ----------
Optimum gaussian width for ewald sums = 2.425994 bohr.
Real space sum over 1331 unit cells with max indices [  5  5  5  ]
Reciprocal space sum over 2197 terms with max indices [  6  6  6  ]

---------- Allocating electronic variables ----------
Initializing wave functions:  reading from 'totalE.wfns'


----- Initializing Supercell corresponding to k-point mesh -----
Lattice vector linear combinations in supercell:
[  24   0   0  ]
[   0  24   0  ]
[   0   0  24  ]
Supercell lattice vectors:
[  0  128.195  128.195  ]
[  128.195  0  128.195  ]
[  128.195  128.195  0  ]

----------- Energy evaluation at fixed state -------------
# Energy components:
   Eewald =      -99.1861145153360724
       EH =       82.8217662017806902
     Eloc =     -183.3259283098675496
      Enl =       21.6834076853396702
      Exc =      -47.9451053848040090
 Exc_core =       16.3921904280305206
       KE =       19.7519818008588430
-------------------------------------
     Etot =     -189.8078020939979069

Fcut=1e-08 reduced nBands from 44 to 28 per unit cell.

------- Configuring supercell and perturbation modes -------

---------- Setting up symmetries ----------

Found 48 point-group symmetries of the bravais lattice
Found 24 space-group symmetries with basis (with translations restricted to unit cells)
Applied RMS atom displacement 0 bohrs to make symmetries exact.

Finding maximally-symmetric orthogonal basis for displacements:
 [ +0.577350 +0.577350 +0.577350 ] |Stabilizer|: 6
 [ -0.816497 +0.408248 +0.408248 ] |Stabilizer|: 2
 [ +0.000000 -0.707107 +0.707107 ] |Stabilizer|: 2

12 signed perturbations of the unit cell reduced to 4 under symmetries:
Ga 0  [ +0.577350 +0.577350 +0.577350 ] 1.500000
Ga 0  [ -0.577350 -0.577350 -0.577350 ] 1.500000
As 0  [ +0.577350 +0.577350 +0.577350 ] 1.500000
As 0  [ -0.577350 -0.577350 -0.577350 ] 1.500000

Calculating unitary rotations of unit cell states under symmetries:
	Matrix elements valid for all available states (all degenerate subspaces are complete).
	RMS unitarity error in valid subspaces: 0.000000e+00

---- Citations for features of the code used in this run ----

   Software package:
      R. Sundararaman, K. Letchworth-Weaver, K.A. Schwarz, D. Gunceler, Y. Ozhabes and T.A. Arias, 'JDFTx: software for joint density-functional theory', SoftwareX 6, 278 (2017)

   gga-PBE exchange-correlation functional:
      J.P. Perdew, K. Burke and M. Ernzerhof, Phys. Rev. Lett. 77, 3865 (1996)

This list may not be complete. Please suggest additional citations or
report any other bugs at https://github.com/shankar1729/jdftx/issues

########### Perturbed supercell calculation 1 of 4 #############

---------- Setting up symmetries ----------

Found 48 point-group symmetries of the bravais lattice
Found 6 space-group symmetries with basis
Applied RMS atom displacement 0 bohrs to make symmetries exact.

---------- Initializing the Grid ----------
R = 
[          0    21.3658    21.3658  ]
[    21.3658          0    21.3658  ]
[    21.3658    21.3658          0  ]
unit cell volume = 19506.9
G =
[  -0.147038   0.147038   0.147038  ]
[   0.147038  -0.147038   0.147038  ]
[   0.147038   0.147038  -0.147038  ]
Minimum fftbox size, Smin = [  164  164  164  ]
Chosen fftbox size, S = [  192  192  192  ]

---------- Initializing tighter grid for wavefunction operations ----------
R = 
[          0    21.3658    21.3658  ]
[    21.3658          0    21.3658  ]
[    21.3658    21.3658          0  ]
unit cell volume = 19506.9
G =
[  -0.147038   0.147038   0.147038  ]
[   0.147038  -0.147038   0.147038  ]
[   0.147038   0.147038  -0.147038  ]
Minimum fftbox size, Smin = [  128  128  128  ]
Chosen fftbox size, S = [  128  128  128  ]

---------- Exchange Correlation functional ----------
Initalized PBE GGA exchange.
Initalized PBE GGA correlation.

---------- Setting up pseudopotentials ----------
Width of ionic core gaussian charges (only for fluid interactions / plotting) set to 0

Reading pseudopotential file '/sdcc/u/jxuucsc/pseudopotentials/psl1.0/rel-pbe/Ga.rel-pbe-dnl-rrkjus_psl.1.0.0.UPF':
  'Ga' pseudopotential, 'PBE' functional
  Generated using "atomic" code by A. Dal Corso  v.6.1
  Author: ADC  Date:  4Jun2019.
  13 valence electrons, 5 orbitals, 10 projectors, 1205 radial grid points, with lMax = 2
  Transforming core density to a uniform radial grid of dG=0.02 with 2346 points.
  Transforming local potential to a uniform radial grid of dG=0.02 with 2346 points.
  Transforming nonlocal projectors to a uniform radial grid of dG=0.02 with 453 points.
  Transforming density augmentations to a uniform radial grid of dG=0.02 with 2346 points.
    4S    l: 0   occupation:  2.0   eigenvalue: -0.327043
    4P    l: 1   occupation:  1.0   eigenvalue: -0.096365
    4P    l: 1   occupation:  0.0   eigenvalue: -0.092144
    3D    l: 2   occupation:  4.0   eigenvalue: -0.711348
    3D    l: 2   occupation:  6.0   eigenvalue: -0.694390
  Transforming atomic orbitals to a uniform radial grid of dG=0.02 with 453 points.
  WARNING: large normalization error in atomic orbital 1p (integral: 0.921141).
  WARNING: large normalization error in atomic orbital 2p (integral: 0.926860).
  WARNING: large normalization error in atomic orbital 1d (integral: 3.140769).
  WARNING: large normalization error in atomic orbital 2d (integral: 3.175352).
  Core radius for overlap checks: 2.18 bohrs.

Reading pseudopotential file '/sdcc/u/jxuucsc/pseudopotentials/psl1.0/rel-pbe/As.rel-pbe-dn-rrkjus_psl.1.0.0.UPF':
  'As' pseudopotential, 'PBE' functional
  Generated using "atomic" code by A. Dal Corso  v.6.1
  Author: ADC  Date:  4Jun2019.
  15 valence electrons, 5 orbitals, 10 projectors, 1209 radial grid points, with lMax = 2
  Transforming core density to a uniform radial grid of dG=0.02 with 2346 points.
  Transforming local potential to a uniform radial grid of dG=0.02 with 2346 points.
  Transforming nonlocal projectors to a uniform radial grid of dG=0.02 with 453 points.
  Transforming density augmentations to a uniform radial grid of dG=0.02 with 2346 points.
    4S    l: 0   occupation:  2.0   eigenvalue: -0.529616
    4P    l: 1   occupation:  2.0   eigenvalue: -0.195442
    4P    l: 1   occupation:  1.0   eigenvalue: -0.185480
    3D    l: 2   occupation:  4.0   eigenvalue: -1.504478
    3D    l: 2   occupation:  6.0   eigenvalue: -1.477709
  Transforming atomic orbitals to a uniform radial grid of dG=0.02 with 453 points.
  WARNING: large normalization error in atomic orbital 1p (integral: 0.910925).
  WARNING: large normalization error in atomic orbital 2p (integral: 0.920299).
  WARNING: large normalization error in atomic orbital 1d (integral: 3.461474).
  WARNING: large normalization error in atomic orbital 2d (integral: 3.510726).
  Core radius for overlap checks: 1.78 bohrs.

Initialized 2 species with 128 total atoms.

Folded 1 k-points by 6x6x6 to 216 k-points.

---------- Setting up k-points, bands, fillings ----------
Adding inversion symmetry to k-mesh for non-inversion-symmetric unit cell.
Reduced to 32 k-points under symmetry. 
Computing the number of bands and number of electrons
Calculating initial fillings.
nElectrons: 1792.000000   nBands: 1792   nStates: 32

----- Setting up reduced wavefunction bases (one per k-point) -----
average nbasis = 96147.588 , ideal nbasis = 96142.518

---------- Setting up ewald sum ----------
Optimum gaussian width for ewald sums = 4.851988 bohr.
Real space sum over 343 unit cells with max indices [  3  3  3  ]
Reciprocal space sum over 12167 terms with max indices [  11  11  11  ]

---------- Allocating electronic variables ----------
Skipped wave function initialization.


-------- Electronic minimization -----------
Will mix electronic density at each iteration.
SCF: Cycle:  0   Etot: -12147.647733795516615   dEtot: -2.597e-01   |Residual|: 2.118e-01   |deigs|: 2.038e-03  t[s]:   2350.79
SCF: Cycle:  1   Etot: -12147.685812860896476   dEtot: -3.808e-02   |Residual|: 7.327e-02   |deigs|: 3.186e-03  t[s]:   4082.66
SCF: Cycle:  2   Etot: -12147.695403523677669   dEtot: -9.591e-03   |Residual|: 3.039e-02   |deigs|: 7.721e-04  t[s]:   5815.32
SCF: Cycle:  3   Etot: -12147.698285432878038   dEtot: -2.882e-03   |Residual|: 6.716e-03   |deigs|: 4.663e-04  t[s]:   7554.67
SCF: Cycle:  4   Etot: -12147.698693727761565   dEtot: -4.083e-04   |Residual|: 3.274e-03   |deigs|: 1.589e-04  t[s]:   9278.73
SCF: Cycle:  5   Etot: -12147.698771196053713   dEtot: -7.747e-05   |Residual|: 1.486e-03   |deigs|: 7.043e-05  t[s]:  10279.32
SCF: Cycle:  6   Etot: -12147.698790130070847   dEtot: -1.893e-05   |Residual|: 6.055e-04   |deigs|: 3.393e-05  t[s]:  11283.67
SCF: Cycle:  7   Etot: -12147.698792396960926   dEtot: -2.267e-06   |Residual|: 3.532e-04   |deigs|: 1.118e-05  t[s]:  12289.94
SCF: Cycle:  8   Etot: -12147.698793347622995   dEtot: -9.507e-07   |Residual|: 2.359e-04   |deigs|: 8.223e-06  t[s]:  13297.79
SCF: Cycle:  9   Etot: -12147.698793952818960   dEtot: -6.052e-07   |Residual|: 1.716e-04   |deigs|: 8.995e-06  t[s]:  14307.08
SCF: Cycle: 10   Etot: -12147.698794190651824   dEtot: -2.378e-07   |Residual|: 5.233e-05   |deigs|: 7.893e-06  t[s]:  15303.37
SCF: Cycle: 11   Etot: -12147.698794268204438   dEtot: -7.755e-08   |Residual|: 3.096e-05   |deigs|: 4.644e-07  t[s]:  16403.48
SCF: Cycle: 12   Etot: -12147.698794308926153   dEtot: -4.072e-08   |Residual|: 2.527e-05   |deigs|: 1.042e-06  t[s]:  17886.20
SCF: Cycle: 13   Etot: -12147.698794307501885   dEtot: +1.424e-09   |Residual|: 1.960e-05   |deigs|: 1.086e-06  t[s]:  19187.79
SCF: Cycle: 14   Etot: -12147.698794300726149   dEtot: +6.776e-09   |Residual|: 9.399e-06   |deigs|: 1.564e-06  t[s]:  20490.40
SCF: Cycle: 15   Etot: -12147.698794224967060   dEtot: +7.576e-08   |Residual|: 4.465e-06   |deigs|: 3.434e-07  t[s]:  21797.45
SCF: Cycle: 16   Etot: -12147.698794197509415   dEtot: +2.746e-08   |Residual|: 2.440e-06   |deigs|: 1.035e-07  t[s]:  22815.75
SCF: Cycle: 17   Etot: -12147.698794221469143   dEtot: -2.396e-08   |Residual|: 1.268e-06   |deigs|: 1.061e-07  t[s]:  23797.15
SCF: Cycle: 18   Etot: -12147.698794210105916   dEtot: +1.136e-08   |Residual|: 5.216e-07   |deigs|: 6.148e-08  t[s]:  24576.33
SCF: Cycle: 19   Etot: -12147.698794207326500   dEtot: +2.779e-09   |Residual|: 4.164e-07   |deigs|: 3.219e-08  t[s]:  25263.81
SCF: Cycle: 20   Etot: -12147.698794207042738   dEtot: +2.838e-10   |Residual|: 2.749e-07   |deigs|: 6.138e-08  t[s]:  25810.84
SCF: Cycle: 21   Etot: -12147.698794206549792   dEtot: +4.929e-10   |Residual|: 1.867e-07   |deigs|: 9.880e-09  t[s]:  26489.37
SCF: Cycle: 22   Etot: -12147.698794207079118   dEtot: -5.293e-10   |Residual|: 3.522e-07   |deigs|: 5.554e-08  t[s]:  27151.14
SCF: Cycle: 23   Etot: -12147.698794207064566   dEtot: +1.455e-11   |Residual|: 2.016e-07   |deigs|: 5.666e-08  t[s]:  27804.30
SCF: Cycle: 24   Etot: -12147.698794207070023   dEtot: -5.457e-12   |Residual|: 1.749e-07   |deigs|: 1.067e-08  t[s]:  28440.08
SCF: Cycle: 25   Etot: -12147.698794207062747   dEtot: +7.276e-12   |Residual|: 1.020e-07   |deigs|: 3.951e-08  t[s]:  28955.63
SCF: Cycle: 26   Etot: -12147.698794207128230   dEtot: -6.548e-11   |Residual|: 6.017e-08   |deigs|: 2.811e-08  t[s]:  29490.03
SCF: Cycle: 27   Etot: -12147.698794207126411   dEtot: +1.819e-12   |Residual|: 5.171e-08   |deigs|: 1.159e-08  t[s]:  30141.41
SCF: Converged (|Residual|<1.000000e-07 for 2 iters).

Energy change: 8.43451e-06 / unit cell
RMS force: 0.000691582

Dumping 'totalE.phonon.1.wfns' ... done
Dumping 'totalE.phonon.1.n' ... done
Dumping 'totalE.phonon.1.Vscloc' ... done
Dumping 'totalE.phonon.1.dforces' ... done.

Completed supercell calculation for iPerturbation 1.
After completing all supercells, rerun with option collectPerturbations in command phonon.
End date and time: Thu Jun  6 09:52:39 2019  (Duration: 0-8:31:06.93)
Done!

PROFILER:             augmentDensityGrid    17.952237 +/-    17.306774 s,   62 calls,   1113.038668 s total
PROFILER:         augmentDensityGridGrad     5.579013 +/-     2.601514 s,   64 calls,    357.056854 s total
PROFILER:        augmentDensitySpherical     0.195784 +/-     0.122430 s,   84 calls,     16.445854 s total
PROFILER:    augmentDensitySphericalGrad     0.220447 +/-     0.148548 s,  180 calls,     39.680412 s total
PROFILER:                 augmentOverlap    10.603709 +/-    11.414713 s,  266 calls,   2820.586564 s total
PROFILER:                     changeGrid     0.006897 +/-     0.006669 s,  119 calls,      0.820742 s total
PROFILER:                     diagouterI    16.594537 +/-    10.492299 s,   42 calls,    696.970549 s total
PROFILER:              EdensityAndVscloc     1.943433 +/-     0.765111 s,   58 calls,    112.719135 s total
PROFILER:                     EnlAndGrad     0.469433 +/-     0.310166 s,  238 calls,    111.725010 s total
PROFILER:            ExCorrCommunication     1.021835 +/-     8.006603 s,  192 calls,    196.192369 s total
PROFILER:               ExCorrFunctional     0.006062 +/-     0.001419 s,   65 calls,      0.394008 s total
PROFILER:                    ExCorrTotal     3.293340 +/-    13.564210 s,   65 calls,    214.067068 s total
PROFILER:                   Idag_DiagV_I    26.610838 +/-    17.450910 s,   77 calls,   2049.034533 s total
PROFILER:                    inv(matrix)     0.000031 +/-     0.000014 s,   27 calls,      0.000836 s total
PROFILER:            matrix::diagonalize     0.414758 +/-     4.452872 s, 5704 calls,   2365.781972 s total
PROFILER:                    matrix::set     0.000712 +/-     0.003940 s, 45461 calls,     32.362046 s total
PROFILER:            phonon::setSupState   105.716363 +/-     0.000000 s,    1 calls,    105.716363 s total
PROFILER:     RadialFunctionR::transform     0.010047 +/-     0.019780 s,  492 calls,      4.942888 s total
PROFILER:                    reduceKmesh     0.237400 +/-     0.161473 s,    2 calls,      0.474800 s total
PROFILER:                            Y*M     6.739158 +/-     4.870690 s,  661 calls,   4454.583528 s total
PROFILER:                          Y1^Y2     4.903986 +/-     5.619122 s,  644 calls,   3158.166999 s total

MEMUSAGE:                   ColumnBundle    40.908372 GB
MEMUSAGE:             complexScalarField     0.210938 GB
MEMUSAGE:        complexScalarFieldTilde     0.562500 GB
MEMUSAGE:                    IndexArrays     0.087171 GB
MEMUSAGE:                         matrix     2.999003 GB
MEMUSAGE:                           misc     0.321689 GB
MEMUSAGE:                     RealKernel     0.053284 GB
MEMUSAGE:                    ScalarField     1.638062 GB
MEMUSAGE:               ScalarFieldTilde     0.481270 GB
MEMUSAGE:                          Total    42.985827 GB
