TACC:  Starting up job 4442047 
TACC:  Starting parallel tasks... 

*************** JDFTx 1.5.0  ***************

Start date and time: Thu Oct  3 11:39:57 2019
Executable /home1/06235/tg855346/jdftx_codes/jdftx-20190827/build/jdftx with command-line: -i bandstruct.in
Running on hosts (process indices):  c506-084.stampede2.tacc.utexas.edu (0-7)  c506-123.stampede2.tacc.utexas.edu (8-15)
Divided in process groups (process indices):  0 (0)  1 (1)  2 (2)  3 (3)  4 (4)  5 (5)  6 (6)  7 (7)  8 (8)  9 (9)  10 (10)  11 (11)  12 (12)  13 (13)  14 (14)  15 (15)
Resource initialization completed at t[s]:      0.00
Run totals: 16 processes, 96 threads, 0 GPUs


Input parsed successfully to the following command list (including defaults):

basis kpoint-dependent
converge-empty-states yes
coords-type Lattice
core-overlap-check vector
coulomb-interaction Periodic
davidson-band-ratio 1.1
dump End BandEigs Spin
dump-name bandstruct.$VAR
elec-cutoff 22 145
elec-eigen-algo Davidson
elec-ex-corr gga-PBE
elec-n-bands 44
electronic-minimize  \
	dirUpdateScheme      FletcherReeves \
	linminMethod         DirUpdateRecommended \
	nIterations          100 \
	history              15 \
	knormThreshold       0 \
	energyDiffThreshold  1e-11 \
	nEnergyDiff          2 \
	alphaTstart          1 \
	alphaTmin            1e-10 \
	updateTestStepSize   yes \
	alphaTreduceFactor   0.1 \
	alphaTincreaseFactor 3 \
	nAlphaAdjustMax      3 \
	wolfeEnergy          0.0001 \
	wolfeGradient        0.9 \
	fdTest               no
exchange-regularization WignerSeitzTruncated
fix-electron-potential totalE.$VAR
fluid None
fluid-ex-corr lda-TF lda-PZ
fluid-gummel-loop 10 1.000000e-05
fluid-minimize  \
	dirUpdateScheme      PolakRibiere \
	linminMethod         DirUpdateRecommended \
	nIterations          100 \
	history              15 \
	knormThreshold       0 \
	energyDiffThreshold  0 \
	nEnergyDiff          2 \
	alphaTstart          1 \
	alphaTmin            1e-10 \
	updateTestStepSize   yes \
	alphaTreduceFactor   0.1 \
	alphaTincreaseFactor 3 \
	nAlphaAdjustMax      3 \
	wolfeEnergy          0.0001 \
	wolfeGradient        0.9 \
	fdTest               no
fluid-solvent H2O 55.338 ScalarEOS \
	epsBulk 78.4 \
	pMol 0.92466 \
	epsInf 1.77 \
	Pvap 1.06736e-10 \
	sigmaBulk 4.62e-05 \
	Rvdw 2.61727 \
	Res 1.42 \
	tauNuc 343133 \
	poleEl 15 7 1
forces-output-coords Positions
ion Ga   0.000000000000000   0.000000000000000   0.000000000000000 0
ion As   0.250000000000000   0.250000000000000   0.250000000000000 0
ion-species /home1/06235/tg855346/pseudopotentials/psl/rel-pbe/Ga.rel-pbe-dnl-rrkjus_psl.1.0.0.UPF
ion-species /home1/06235/tg855346/pseudopotentials/psl/rel-pbe/As.rel-pbe-dn-rrkjus_psl.1.0.0.UPF
ion-width 0
ionic-minimize  \
	dirUpdateScheme      L-BFGS \
	linminMethod         DirUpdateRecommended \
	nIterations          0 \
	history              15 \
	knormThreshold       0.0001 \
	energyDiffThreshold  1e-06 \
	nEnergyDiff          2 \
	alphaTstart          1 \
	alphaTmin            1e-10 \
	updateTestStepSize   yes \
	alphaTreduceFactor   0.1 \
	alphaTincreaseFactor 3 \
	nAlphaAdjustMax      3 \
	wolfeEnergy          0.0001 \
	wolfeGradient        0.9 \
	fdTest               no
kpoint   0.000000000000   0.000000000000   0.000000000000  0.00384615384615
kpoint   0.000000000000   0.008771929825   0.008771929825  0.00384615384615
kpoint   0.000000000000   0.017543859649   0.017543859649  0.00384615384615
kpoint   0.000000000000   0.026315789474   0.026315789474  0.00384615384615
kpoint   0.000000000000   0.035087719298   0.035087719298  0.00384615384615
kpoint   0.000000000000   0.043859649123   0.043859649123  0.00384615384615
kpoint   0.000000000000   0.052631578947   0.052631578947  0.00384615384615
kpoint   0.000000000000   0.061403508772   0.061403508772  0.00384615384615
kpoint   0.000000000000   0.070175438596   0.070175438596  0.00384615384615
kpoint   0.000000000000   0.078947368421   0.078947368421  0.00384615384615
kpoint   0.000000000000   0.087719298246   0.087719298246  0.00384615384615
kpoint   0.000000000000   0.096491228070   0.096491228070  0.00384615384615
kpoint   0.000000000000   0.105263157895   0.105263157895  0.00384615384615
kpoint   0.000000000000   0.114035087719   0.114035087719  0.00384615384615
kpoint   0.000000000000   0.122807017544   0.122807017544  0.00384615384615
kpoint   0.000000000000   0.131578947368   0.131578947368  0.00384615384615
kpoint   0.000000000000   0.140350877193   0.140350877193  0.00384615384615
kpoint   0.000000000000   0.149122807018   0.149122807018  0.00384615384615
kpoint   0.000000000000   0.157894736842   0.157894736842  0.00384615384615
kpoint   0.000000000000   0.166666666667   0.166666666667  0.00384615384615
kpoint   0.000000000000   0.175438596491   0.175438596491  0.00384615384615
kpoint   0.000000000000   0.184210526316   0.184210526316  0.00384615384615
kpoint   0.000000000000   0.192982456140   0.192982456140  0.00384615384615
kpoint   0.000000000000   0.201754385965   0.201754385965  0.00384615384615
kpoint   0.000000000000   0.210526315789   0.210526315789  0.00384615384615
kpoint   0.000000000000   0.219298245614   0.219298245614  0.00384615384615
kpoint   0.000000000000   0.228070175439   0.228070175439  0.00384615384615
kpoint   0.000000000000   0.236842105263   0.236842105263  0.00384615384615
kpoint   0.000000000000   0.245614035088   0.245614035088  0.00384615384615
kpoint   0.000000000000   0.254385964912   0.254385964912  0.00384615384615
kpoint   0.000000000000   0.263157894737   0.263157894737  0.00384615384615
kpoint   0.000000000000   0.271929824561   0.271929824561  0.00384615384615
kpoint   0.000000000000   0.280701754386   0.280701754386  0.00384615384615
kpoint   0.000000000000   0.289473684211   0.289473684211  0.00384615384615
kpoint   0.000000000000   0.298245614035   0.298245614035  0.00384615384615
kpoint   0.000000000000   0.307017543860   0.307017543860  0.00384615384615
kpoint   0.000000000000   0.315789473684   0.315789473684  0.00384615384615
kpoint   0.000000000000   0.324561403509   0.324561403509  0.00384615384615
kpoint   0.000000000000   0.333333333333   0.333333333333  0.00384615384615
kpoint   0.000000000000   0.342105263158   0.342105263158  0.00384615384615
kpoint   0.000000000000   0.350877192982   0.350877192982  0.00384615384615
kpoint   0.000000000000   0.359649122807   0.359649122807  0.00384615384615
kpoint   0.000000000000   0.368421052632   0.368421052632  0.00384615384615
kpoint   0.000000000000   0.377192982456   0.377192982456  0.00384615384615
kpoint   0.000000000000   0.385964912281   0.385964912281  0.00384615384615
kpoint   0.000000000000   0.394736842105   0.394736842105  0.00384615384615
kpoint   0.000000000000   0.403508771930   0.403508771930  0.00384615384615
kpoint   0.000000000000   0.412280701754   0.412280701754  0.00384615384615
kpoint   0.000000000000   0.421052631579   0.421052631579  0.00384615384615
kpoint   0.000000000000   0.429824561404   0.429824561404  0.00384615384615
kpoint   0.000000000000   0.438596491228   0.438596491228  0.00384615384615
kpoint   0.000000000000   0.447368421053   0.447368421053  0.00384615384615
kpoint   0.000000000000   0.456140350877   0.456140350877  0.00384615384615
kpoint   0.000000000000   0.464912280702   0.464912280702  0.00384615384615
kpoint   0.000000000000   0.473684210526   0.473684210526  0.00384615384615
kpoint   0.000000000000   0.482456140351   0.482456140351  0.00384615384615
kpoint   0.000000000000   0.491228070175   0.491228070175  0.00384615384615
kpoint   0.000000000000   0.500000000000   0.500000000000  0.00384615384615
kpoint   0.008620689655   0.508620689655   0.500000000000  0.00384615384615
kpoint   0.017241379310   0.517241379310   0.500000000000  0.00384615384615
kpoint   0.025862068966   0.525862068966   0.500000000000  0.00384615384615
kpoint   0.034482758621   0.534482758621   0.500000000000  0.00384615384615
kpoint   0.043103448276   0.543103448276   0.500000000000  0.00384615384615
kpoint   0.051724137931   0.551724137931   0.500000000000  0.00384615384615
kpoint   0.060344827586   0.560344827586   0.500000000000  0.00384615384615
kpoint   0.068965517241   0.568965517241   0.500000000000  0.00384615384615
kpoint   0.077586206897   0.577586206897   0.500000000000  0.00384615384615
kpoint   0.086206896552   0.586206896552   0.500000000000  0.00384615384615
kpoint   0.094827586207   0.594827586207   0.500000000000  0.00384615384615
kpoint   0.103448275862   0.603448275862   0.500000000000  0.00384615384615
kpoint   0.112068965517   0.612068965517   0.500000000000  0.00384615384615
kpoint   0.120689655172   0.620689655172   0.500000000000  0.00384615384615
kpoint   0.129310344828   0.629310344828   0.500000000000  0.00384615384615
kpoint   0.137931034483   0.637931034483   0.500000000000  0.00384615384615
kpoint   0.146551724138   0.646551724138   0.500000000000  0.00384615384615
kpoint   0.155172413793   0.655172413793   0.500000000000  0.00384615384615
kpoint   0.163793103448   0.663793103448   0.500000000000  0.00384615384615
kpoint   0.172413793103   0.672413793103   0.500000000000  0.00384615384615
kpoint   0.181034482759   0.681034482759   0.500000000000  0.00384615384615
kpoint   0.189655172414   0.689655172414   0.500000000000  0.00384615384615
kpoint   0.198275862069   0.698275862069   0.500000000000  0.00384615384615
kpoint   0.206896551724   0.706896551724   0.500000000000  0.00384615384615
kpoint   0.215517241379   0.715517241379   0.500000000000  0.00384615384615
kpoint   0.224137931034   0.724137931034   0.500000000000  0.00384615384615
kpoint   0.232758620690   0.732758620690   0.500000000000  0.00384615384615
kpoint   0.241379310345   0.741379310345   0.500000000000  0.00384615384615
kpoint   0.250000000000   0.750000000000   0.500000000000  0.00384615384615
kpoint   0.258620689655   0.741379310345   0.500000000000  0.00384615384615
kpoint   0.267241379310   0.732758620690   0.500000000000  0.00384615384615
kpoint   0.275862068966   0.724137931034   0.500000000000  0.00384615384615
kpoint   0.284482758621   0.715517241379   0.500000000000  0.00384615384615
kpoint   0.293103448276   0.706896551724   0.500000000000  0.00384615384615
kpoint   0.301724137931   0.698275862069   0.500000000000  0.00384615384615
kpoint   0.310344827586   0.689655172414   0.500000000000  0.00384615384615
kpoint   0.318965517241   0.681034482759   0.500000000000  0.00384615384615
kpoint   0.327586206897   0.672413793103   0.500000000000  0.00384615384615
kpoint   0.336206896552   0.663793103448   0.500000000000  0.00384615384615
kpoint   0.344827586207   0.655172413793   0.500000000000  0.00384615384615
kpoint   0.353448275862   0.646551724138   0.500000000000  0.00384615384615
kpoint   0.362068965517   0.637931034483   0.500000000000  0.00384615384615
kpoint   0.370689655172   0.629310344828   0.500000000000  0.00384615384615
kpoint   0.379310344828   0.620689655172   0.500000000000  0.00384615384615
kpoint   0.387931034483   0.612068965517   0.500000000000  0.00384615384615
kpoint   0.396551724138   0.603448275862   0.500000000000  0.00384615384615
kpoint   0.405172413793   0.594827586207   0.500000000000  0.00384615384615
kpoint   0.413793103448   0.586206896552   0.500000000000  0.00384615384615
kpoint   0.422413793103   0.577586206897   0.500000000000  0.00384615384615
kpoint   0.431034482759   0.568965517241   0.500000000000  0.00384615384615
kpoint   0.439655172414   0.560344827586   0.500000000000  0.00384615384615
kpoint   0.448275862069   0.551724137931   0.500000000000  0.00384615384615
kpoint   0.456896551724   0.543103448276   0.500000000000  0.00384615384615
kpoint   0.465517241379   0.534482758621   0.500000000000  0.00384615384615
kpoint   0.474137931034   0.525862068966   0.500000000000  0.00384615384615
kpoint   0.482758620690   0.517241379310   0.500000000000  0.00384615384615
kpoint   0.491379310345   0.508620689655   0.500000000000  0.00384615384615
kpoint   0.500000000000   0.500000000000   0.500000000000  0.00384615384615
kpoint   0.492857142857   0.492857142857   0.492857142857  0.00384615384615
kpoint   0.485714285714   0.485714285714   0.485714285714  0.00384615384615
kpoint   0.478571428571   0.478571428571   0.478571428571  0.00384615384615
kpoint   0.471428571429   0.471428571429   0.471428571429  0.00384615384615
kpoint   0.464285714286   0.464285714286   0.464285714286  0.00384615384615
kpoint   0.457142857143   0.457142857143   0.457142857143  0.00384615384615
kpoint   0.450000000000   0.450000000000   0.450000000000  0.00384615384615
kpoint   0.442857142857   0.442857142857   0.442857142857  0.00384615384615
kpoint   0.435714285714   0.435714285714   0.435714285714  0.00384615384615
kpoint   0.428571428571   0.428571428571   0.428571428571  0.00384615384615
kpoint   0.421428571429   0.421428571429   0.421428571429  0.00384615384615
kpoint   0.414285714286   0.414285714286   0.414285714286  0.00384615384615
kpoint   0.407142857143   0.407142857143   0.407142857143  0.00384615384615
kpoint   0.400000000000   0.400000000000   0.400000000000  0.00384615384615
kpoint   0.392857142857   0.392857142857   0.392857142857  0.00384615384615
kpoint   0.385714285714   0.385714285714   0.385714285714  0.00384615384615
kpoint   0.378571428571   0.378571428571   0.378571428571  0.00384615384615
kpoint   0.371428571429   0.371428571429   0.371428571429  0.00384615384615
kpoint   0.364285714286   0.364285714286   0.364285714286  0.00384615384615
kpoint   0.357142857143   0.357142857143   0.357142857143  0.00384615384615
kpoint   0.350000000000   0.350000000000   0.350000000000  0.00384615384615
kpoint   0.342857142857   0.342857142857   0.342857142857  0.00384615384615
kpoint   0.335714285714   0.335714285714   0.335714285714  0.00384615384615
kpoint   0.328571428571   0.328571428571   0.328571428571  0.00384615384615
kpoint   0.321428571429   0.321428571429   0.321428571429  0.00384615384615
kpoint   0.314285714286   0.314285714286   0.314285714286  0.00384615384615
kpoint   0.307142857143   0.307142857143   0.307142857143  0.00384615384615
kpoint   0.300000000000   0.300000000000   0.300000000000  0.00384615384615
kpoint   0.292857142857   0.292857142857   0.292857142857  0.00384615384615
kpoint   0.285714285714   0.285714285714   0.285714285714  0.00384615384615
kpoint   0.278571428571   0.278571428571   0.278571428571  0.00384615384615
kpoint   0.271428571429   0.271428571429   0.271428571429  0.00384615384615
kpoint   0.264285714286   0.264285714286   0.264285714286  0.00384615384615
kpoint   0.257142857143   0.257142857143   0.257142857143  0.00384615384615
kpoint   0.250000000000   0.250000000000   0.250000000000  0.00384615384615
kpoint   0.242857142857   0.242857142857   0.242857142857  0.00384615384615
kpoint   0.235714285714   0.235714285714   0.235714285714  0.00384615384615
kpoint   0.228571428571   0.228571428571   0.228571428571  0.00384615384615
kpoint   0.221428571429   0.221428571429   0.221428571429  0.00384615384615
kpoint   0.214285714286   0.214285714286   0.214285714286  0.00384615384615
kpoint   0.207142857143   0.207142857143   0.207142857143  0.00384615384615
kpoint   0.200000000000   0.200000000000   0.200000000000  0.00384615384615
kpoint   0.192857142857   0.192857142857   0.192857142857  0.00384615384615
kpoint   0.185714285714   0.185714285714   0.185714285714  0.00384615384615
kpoint   0.178571428571   0.178571428571   0.178571428571  0.00384615384615
kpoint   0.171428571429   0.171428571429   0.171428571429  0.00384615384615
kpoint   0.164285714286   0.164285714286   0.164285714286  0.00384615384615
kpoint   0.157142857143   0.157142857143   0.157142857143  0.00384615384615
kpoint   0.150000000000   0.150000000000   0.150000000000  0.00384615384615
kpoint   0.142857142857   0.142857142857   0.142857142857  0.00384615384615
kpoint   0.135714285714   0.135714285714   0.135714285714  0.00384615384615
kpoint   0.128571428571   0.128571428571   0.128571428571  0.00384615384615
kpoint   0.121428571429   0.121428571429   0.121428571429  0.00384615384615
kpoint   0.114285714286   0.114285714286   0.114285714286  0.00384615384615
kpoint   0.107142857143   0.107142857143   0.107142857143  0.00384615384615
kpoint   0.100000000000   0.100000000000   0.100000000000  0.00384615384615
kpoint   0.092857142857   0.092857142857   0.092857142857  0.00384615384615
kpoint   0.085714285714   0.085714285714   0.085714285714  0.00384615384615
kpoint   0.078571428571   0.078571428571   0.078571428571  0.00384615384615
kpoint   0.071428571429   0.071428571429   0.071428571429  0.00384615384615
kpoint   0.064285714286   0.064285714286   0.064285714286  0.00384615384615
kpoint   0.057142857143   0.057142857143   0.057142857143  0.00384615384615
kpoint   0.050000000000   0.050000000000   0.050000000000  0.00384615384615
kpoint   0.042857142857   0.042857142857   0.042857142857  0.00384615384615
kpoint   0.035714285714   0.035714285714   0.035714285714  0.00384615384615
kpoint   0.028571428571   0.028571428571   0.028571428571  0.00384615384615
kpoint   0.021428571429   0.021428571429   0.021428571429  0.00384615384615
kpoint   0.014285714286   0.014285714286   0.014285714286  0.00384615384615
kpoint   0.007142857143   0.007142857143   0.007142857143  0.00384615384615
kpoint   0.000000000000   0.000000000000   0.000000000000  0.00384615384615
kpoint   0.005067567568   0.010135135135   0.005067567568  0.00384615384615
kpoint   0.010135135135   0.020270270270   0.010135135135  0.00384615384615
kpoint   0.015202702703   0.030405405405   0.015202702703  0.00384615384615
kpoint   0.020270270270   0.040540540541   0.020270270270  0.00384615384615
kpoint   0.025337837838   0.050675675676   0.025337837838  0.00384615384615
kpoint   0.030405405405   0.060810810811   0.030405405405  0.00384615384615
kpoint   0.035472972973   0.070945945946   0.035472972973  0.00384615384615
kpoint   0.040540540541   0.081081081081   0.040540540541  0.00384615384615
kpoint   0.045608108108   0.091216216216   0.045608108108  0.00384615384615
kpoint   0.050675675676   0.101351351351   0.050675675676  0.00384615384615
kpoint   0.055743243243   0.111486486486   0.055743243243  0.00384615384615
kpoint   0.060810810811   0.121621621622   0.060810810811  0.00384615384615
kpoint   0.065878378378   0.131756756757   0.065878378378  0.00384615384615
kpoint   0.070945945946   0.141891891892   0.070945945946  0.00384615384615
kpoint   0.076013513514   0.152027027027   0.076013513514  0.00384615384615
kpoint   0.081081081081   0.162162162162   0.081081081081  0.00384615384615
kpoint   0.086148648649   0.172297297297   0.086148648649  0.00384615384615
kpoint   0.091216216216   0.182432432432   0.091216216216  0.00384615384615
kpoint   0.096283783784   0.192567567568   0.096283783784  0.00384615384615
kpoint   0.101351351351   0.202702702703   0.101351351351  0.00384615384615
kpoint   0.106418918919   0.212837837838   0.106418918919  0.00384615384615
kpoint   0.111486486486   0.222972972973   0.111486486486  0.00384615384615
kpoint   0.116554054054   0.233108108108   0.116554054054  0.00384615384615
kpoint   0.121621621622   0.243243243243   0.121621621622  0.00384615384615
kpoint   0.126689189189   0.253378378378   0.126689189189  0.00384615384615
kpoint   0.131756756757   0.263513513514   0.131756756757  0.00384615384615
kpoint   0.136824324324   0.273648648649   0.136824324324  0.00384615384615
kpoint   0.141891891892   0.283783783784   0.141891891892  0.00384615384615
kpoint   0.146959459459   0.293918918919   0.146959459459  0.00384615384615
kpoint   0.152027027027   0.304054054054   0.152027027027  0.00384615384615
kpoint   0.157094594595   0.314189189189   0.157094594595  0.00384615384615
kpoint   0.162162162162   0.324324324324   0.162162162162  0.00384615384615
kpoint   0.167229729730   0.334459459459   0.167229729730  0.00384615384615
kpoint   0.172297297297   0.344594594595   0.172297297297  0.00384615384615
kpoint   0.177364864865   0.354729729730   0.177364864865  0.00384615384615
kpoint   0.182432432432   0.364864864865   0.182432432432  0.00384615384615
kpoint   0.187500000000   0.375000000000   0.187500000000  0.00384615384615
kpoint   0.192567567568   0.385135135135   0.192567567568  0.00384615384615
kpoint   0.197635135135   0.395270270270   0.197635135135  0.00384615384615
kpoint   0.202702702703   0.405405405405   0.202702702703  0.00384615384615
kpoint   0.207770270270   0.415540540541   0.207770270270  0.00384615384615
kpoint   0.212837837838   0.425675675676   0.212837837838  0.00384615384615
kpoint   0.217905405405   0.435810810811   0.217905405405  0.00384615384615
kpoint   0.222972972973   0.445945945946   0.222972972973  0.00384615384615
kpoint   0.228040540541   0.456081081081   0.228040540541  0.00384615384615
kpoint   0.233108108108   0.466216216216   0.233108108108  0.00384615384615
kpoint   0.238175675676   0.476351351351   0.238175675676  0.00384615384615
kpoint   0.243243243243   0.486486486486   0.243243243243  0.00384615384615
kpoint   0.248310810811   0.496621621622   0.248310810811  0.00384615384615
kpoint   0.253378378378   0.506756756757   0.253378378378  0.00384615384615
kpoint   0.258445945946   0.516891891892   0.258445945946  0.00384615384615
kpoint   0.263513513514   0.527027027027   0.263513513514  0.00384615384615
kpoint   0.268581081081   0.537162162162   0.268581081081  0.00384615384615
kpoint   0.273648648649   0.547297297297   0.273648648649  0.00384615384615
kpoint   0.278716216216   0.557432432432   0.278716216216  0.00384615384615
kpoint   0.283783783784   0.567567567568   0.283783783784  0.00384615384615
kpoint   0.288851351351   0.577702702703   0.288851351351  0.00384615384615
kpoint   0.293918918919   0.587837837838   0.293918918919  0.00384615384615
kpoint   0.298986486486   0.597972972973   0.298986486486  0.00384615384615
kpoint   0.304054054054   0.608108108108   0.304054054054  0.00384615384615
kpoint   0.309121621622   0.618243243243   0.309121621622  0.00384615384615
kpoint   0.314189189189   0.628378378378   0.314189189189  0.00384615384615
kpoint   0.319256756757   0.638513513514   0.319256756757  0.00384615384615
kpoint   0.324324324324   0.648648648649   0.324324324324  0.00384615384615
kpoint   0.329391891892   0.658783783784   0.329391891892  0.00384615384615
kpoint   0.334459459459   0.668918918919   0.334459459459  0.00384615384615
kpoint   0.339527027027   0.679054054054   0.339527027027  0.00384615384615
kpoint   0.344594594595   0.689189189189   0.344594594595  0.00384615384615
kpoint   0.349662162162   0.699324324324   0.349662162162  0.00384615384615
kpoint   0.354729729730   0.709459459459   0.354729729730  0.00384615384615
kpoint   0.359797297297   0.719594594595   0.359797297297  0.00384615384615
kpoint   0.364864864865   0.729729729730   0.364864864865  0.00384615384615
kpoint   0.369932432432   0.739864864865   0.369932432432  0.00384615384615
kpoint   0.375000000000   0.750000000000   0.375000000000  0.00384615384615
kpoint-folding 1 1 1 
latt-move-scale 1 1 1
latt-scale 1 1 1 
lattice Face-Centered Cubic 10.6829
lattice-minimize  \
	dirUpdateScheme      L-BFGS \
	linminMethod         DirUpdateRecommended \
	nIterations          0 \
	history              15 \
	knormThreshold       0 \
	energyDiffThreshold  1e-06 \
	nEnergyDiff          2 \
	alphaTstart          1 \
	alphaTmin            1e-10 \
	updateTestStepSize   yes \
	alphaTreduceFactor   0.1 \
	alphaTincreaseFactor 3 \
	nAlphaAdjustMax      3 \
	wolfeEnergy          0.0001 \
	wolfeGradient        0.9 \
	fdTest               no
lcao-params -1 1e-06 0.001
pcm-variant GLSSA13
spintype spin-orbit
subspace-rotation-factor 1 yes
symmetries none
symmetry-threshold 0.0001


Applied RMS atom displacement 0 bohrs to make symmetries exact.

---------- Initializing the Grid ----------
R = 
[          0    5.34145    5.34145  ]
[    5.34145          0    5.34145  ]
[    5.34145    5.34145          0  ]
unit cell volume = 304.795
G =
[  -0.588154   0.588154   0.588154  ]
[   0.588154  -0.588154   0.588154  ]
[   0.588154   0.588154  -0.588154  ]
Minimum fftbox size, Smin = [  44  44  44  ]
Chosen fftbox size, S = [  48  48  48  ]

---------- Initializing tighter grid for wavefunction operations ----------
R = 
[          0    5.34145    5.34145  ]
[    5.34145          0    5.34145  ]
[    5.34145    5.34145          0  ]
unit cell volume = 304.795
G =
[  -0.588154   0.588154   0.588154  ]
[   0.588154  -0.588154   0.588154  ]
[   0.588154   0.588154  -0.588154  ]
Minimum fftbox size, Smin = [  32  32  32  ]
Chosen fftbox size, S = [  32  32  32  ]

---------- Exchange Correlation functional ----------
Initalized PBE GGA exchange.
Initalized PBE GGA correlation.

---------- Setting up pseudopotentials ----------
Width of ionic core gaussian charges (only for fluid interactions / plotting) set to 0

Reading pseudopotential file '/home1/06235/tg855346/pseudopotentials/psl/rel-pbe/Ga.rel-pbe-dnl-rrkjus_psl.1.0.0.UPF':
  'Ga' pseudopotential, 'PBE' functional
  Generated using "atomic" code by A. Dal Corso  v.6.1 svn rev. 13369
  Author: ADC  Date:  4Jun2019.
  13 valence electrons, 5 orbitals, 10 projectors, 1205 radial grid points, with lMax = 2
  Transforming core density to a uniform radial grid of dG=0.02 with 2346 points.
  Transforming local potential to a uniform radial grid of dG=0.02 with 2346 points.
  Transforming nonlocal projectors to a uniform radial grid of dG=0.02 with 453 points.
  Transforming density augmentations to a uniform radial grid of dG=0.02 with 2346 points.
    4S    l: 0   occupation:  2.0   eigenvalue: -0.327043
    4P    l: 1   occupation:  1.0   eigenvalue: -0.096365
    4P    l: 1   occupation:  0.0   eigenvalue: -0.092144
    3D    l: 2   occupation:  4.0   eigenvalue: -0.711348
    3D    l: 2   occupation:  6.0   eigenvalue: -0.694390
  Transforming atomic orbitals to a uniform radial grid of dG=0.02 with 453 points.
  WARNING: large normalization error in atomic orbital 1p (integral: 0.921141).
  WARNING: large normalization error in atomic orbital 2p (integral: 0.926860).
  WARNING: large normalization error in atomic orbital 1d (integral: 3.140769).
  WARNING: large normalization error in atomic orbital 2d (integral: 3.175352).
  Core radius for overlap checks: 2.18 bohrs.

Reading pseudopotential file '/home1/06235/tg855346/pseudopotentials/psl/rel-pbe/As.rel-pbe-dn-rrkjus_psl.1.0.0.UPF':
  'As' pseudopotential, 'PBE' functional
  Generated using "atomic" code by A. Dal Corso  v.6.1 svn rev. 13369
  Author: ADC  Date:  4Jun2019.
  15 valence electrons, 5 orbitals, 10 projectors, 1209 radial grid points, with lMax = 2
  Transforming core density to a uniform radial grid of dG=0.02 with 2346 points.
  Transforming local potential to a uniform radial grid of dG=0.02 with 2346 points.
  Transforming nonlocal projectors to a uniform radial grid of dG=0.02 with 453 points.
  Transforming density augmentations to a uniform radial grid of dG=0.02 with 2346 points.
    4S    l: 0   occupation:  2.0   eigenvalue: -0.529616
    4P    l: 1   occupation:  2.0   eigenvalue: -0.195442
    4P    l: 1   occupation:  1.0   eigenvalue: -0.185480
    3D    l: 2   occupation:  4.0   eigenvalue: -1.504478
    3D    l: 2   occupation:  6.0   eigenvalue: -1.477709
  Transforming atomic orbitals to a uniform radial grid of dG=0.02 with 453 points.
  WARNING: large normalization error in atomic orbital 1p (integral: 0.910925).
  WARNING: large normalization error in atomic orbital 2p (integral: 0.920299).
  WARNING: large normalization error in atomic orbital 1d (integral: 3.461474).
  WARNING: large normalization error in atomic orbital 2d (integral: 3.510726).
  Core radius for overlap checks: 1.78 bohrs.

Initialized 2 species with 2 total atoms.

Folded 260 k-points by 1x1x1 to 260 k-points.

---------- Setting up k-points, bands, fillings ----------
No reducable k-points. 
Computing the number of bands and number of electrons
Calculating initial fillings.
nElectrons:  28.000000   nBands: 44   nStates: 260

----- Setting up reduced wavefunction bases (one per k-point) -----
average nbasis = 1494.492 , ideal nbasis = 1502.227

---------- Setting up ewald sum ----------
Optimum gaussian width for ewald sums = 2.425994 bohr.
Real space sum over 1331 unit cells with max indices [  5  5  5  ]
Reciprocal space sum over 2197 terms with max indices [  6  6  6  ]

---------- Allocating electronic variables ----------
Reading "Vscloc" from file 'totalE.Vscloc' ... done
Initializing wave functions:  linear combination of atomic orbitals
Note: number of bands (44) exceeds available atomic orbitals (36)


---- Citations for features of the code used in this run ----

   Software package:
      R. Sundararaman, K. Letchworth-Weaver, K.A. Schwarz, D. Gunceler, Y. Ozhabes and T.A. Arias, 'JDFTx: software for joint density-functional theory', SoftwareX 6, 278 (2017)

   gga-PBE exchange-correlation functional:
      J.P. Perdew, K. Burke and M. Ernzerhof, Phys. Rev. Lett. 77, 3865 (1996)

   Total energy minimization:
      T.A. Arias, M.C. Payne and J.D. Joannopoulos, Phys. Rev. Lett. 69, 1077 (1992)

This list may not be complete. Please suggest additional citations or
report any other bugs at https://github.com/shankar1729/jdftx/issues

Initialization completed successfully at t[s]:      4.36


----------- Band structure minimization -------------
Minimization will be done independently for each quantum number.

---- Minimization of quantum number:     0  [ +0.0000000 +0.0000000 +0.0000000 ]  0.003846154 ----
BandDavidson: Iter:   0  Eband: -0.004762203450643
BandDavidson: Iter:   1  Eband: -0.010329754224644  dEband: -5.567551e-03  t[s]:      4.43
BandDavidson: Iter:   2  Eband: -0.010801998107772  dEband: -4.722439e-04  t[s]:      4.47
BandDavidson: Iter:   3  Eband: -0.010820500789609  dEband: -1.850268e-05  t[s]:      4.51
BandDavidson: Iter:   4  Eband: -0.010823128558903  dEband: -2.627769e-06  t[s]:      4.55
BandDavidson: Iter:   5  Eband: -0.010824178831642  dEband: -1.050273e-06  t[s]:      4.59
BandDavidson: Iter:   6  Eband: -0.010825300023193  dEband: -1.121192e-06  t[s]:      4.63
BandDavidson: Iter:   7  Eband: -0.010826033351600  dEband: -7.333284e-07  t[s]:      4.67
BandDavidson: Iter:   8  Eband: -0.010826275180249  dEband: -2.418286e-07  t[s]:      4.71
BandDavidson: Iter:   9  Eband: -0.010826341347471  dEband: -6.616722e-08  t[s]:      4.76
BandDavidson: Iter:  10  Eband: -0.010826358257270  dEband: -1.690980e-08  t[s]:      4.80
BandDavidson: Iter:  11  Eband: -0.010826362661530  dEband: -4.404261e-09  t[s]:      4.84
BandDavidson: Iter:  12  Eband: -0.010826363795125  dEband: -1.133594e-09  t[s]:      4.88
BandDavidson: Iter:  13  Eband: -0.010826364106823  dEband: -3.116981e-10  t[s]:      4.91
BandDavidson: Iter:  14  Eband: -0.010826364188723  dEband: -8.189961e-11  t[s]:      4.93
BandDavidson: Iter:  15  Eband: -0.010826364210852  dEband: -2.212924e-11  t[s]:      4.96
BandDavidson: Iter:  16  Eband: -0.010826364216749  dEband: -5.897293e-12  t[s]:      4.99
BandDavidson: Converged (dEband<1.000000e-11)

---- Minimization of quantum number:     1  [ +0.0000000 +0.0087719 +0.0087719 ]  0.003846154 ----
BandDavidson: Iter:   0  Eband: -0.004134964088375
BandDavidson: Iter:   1  Eband: -0.010278057596730  dEband: -6.143094e-03  t[s]:      5.05
BandDavidson: Iter:   2  Eband: -0.010802442988775  dEband: -5.243854e-04  t[s]:      5.10
BandDavidson: Iter:   3  Eband: -0.010822889103320  dEband: -2.044611e-05  t[s]:      5.14
BandDavidson: Iter:   4  Eband: -0.010826625879650  dEband: -3.736776e-06  t[s]:      5.19
BandDavidson: Iter:   5  Eband: -0.010827742382644  dEband: -1.116503e-06  t[s]:      5.23
BandDavidson: Iter:   6  Eband: -0.010828593916147  dEband: -8.515335e-07  t[s]:      5.28
BandDavidson: Iter:   7  Eband: -0.010829366020490  dEband: -7.721043e-07  t[s]:      5.32
BandDavidson: Iter:   8  Eband: -0.010829673968208  dEband: -3.079477e-07  t[s]:      5.36
BandDavidson: Iter:   9  Eband: -0.010829769079678  dEband: -9.511147e-08  t[s]:      5.40
BandDavidson: Iter:  10  Eband: -0.010829796719655  dEband: -2.763998e-08  t[s]:      5.44
BandDavidson: Iter:  11  Eband: -0.010829803096900  dEband: -6.377245e-09  t[s]:      5.48
BandDavidson: Iter:  12  Eband: -0.010829804513974  dEband: -1.417074e-09  t[s]:      5.52
BandDavidson: Iter:  13  Eband: -0.010829804857891  dEband: -3.439174e-10  t[s]:      5.55
BandDavidson: Iter:  14  Eband: -0.010829804937321  dEband: -7.942945e-11  t[s]:      5.58
BandDavidson: Iter:  15  Eband: -0.010829804957457  dEband: -2.013622e-11  t[s]:      5.60
BandDavidson: Iter:  16  Eband: -0.010829804962891  dEband: -5.433820e-12  t[s]:      5.63
BandDavidson: Converged (dEband<1.000000e-11)

---- Minimization of quantum number:     2  [ +0.0000000 +0.0175439 +0.0175439 ]  0.003846154 ----
BandDavidson: Iter:   0  Eband: -0.005087455498604
BandDavidson: Iter:   1  Eband: -0.010388301420071  dEband: -5.300846e-03  t[s]:      5.69
BandDavidson: Iter:   2  Eband: -0.010808067435924  dEband: -4.197660e-04  t[s]:      5.73
BandDavidson: Iter:   3  Eband: -0.010834223593571  dEband: -2.615616e-05  t[s]:      5.77
BandDavidson: Iter:   4  Eband: -0.010838949632077  dEband: -4.726039e-06  t[s]:      5.81
BandDavidson: Iter:   5  Eband: -0.010840225912739  dEband: -1.276281e-06  t[s]:      5.86
BandDavidson: Iter:   6  Eband: -0.010840950636464  dEband: -7.247237e-07  t[s]:      5.91
BandDavidson: Iter:   7  Eband: -0.010841309448954  dEband: -3.588125e-07  t[s]:      5.95
BandDavidson: Iter:   8  Eband: -0.010841415039070  dEband: -1.055901e-07  t[s]:      6.00
BandDavidson: Iter:   9  Eband: -0.010841443450590  dEband: -2.841152e-08  t[s]:      6.04
BandDavidson: Iter:  10  Eband: -0.010841450033884  dEband: -6.583294e-09  t[s]:      6.09
BandDavidson: Iter:  11  Eband: -0.010841451356622  dEband: -1.322738e-09  t[s]:      6.13
BandDavidson: Iter:  12  Eband: -0.010841451647519  dEband: -2.908971e-10  t[s]:      6.17
BandDavidson: Iter:  13  Eband: -0.010841451710636  dEband: -6.311745e-11  t[s]:      6.20
BandDavidson: Iter:  14  Eband: -0.010841451726220  dEband: -1.558393e-11  t[s]:      6.23
BandDavidson: Iter:  15  Eband: -0.010841451730597  dEband: -4.376702e-12  t[s]:      6.27
BandDavidson: Converged (dEband<1.000000e-11)

---- Minimization of quantum number:     3  [ +0.0000000 +0.0263158 +0.0263158 ]  0.003846154 ----
BandDavidson: Iter:   0  Eband: -0.003773956011395
BandDavidson: Iter:   1  Eband: -0.010293565765392  dEband: -6.519610e-03  t[s]:      6.33
BandDavidson: Iter:   2  Eband: -0.010828157272240  dEband: -5.345915e-04  t[s]:      6.37
BandDavidson: Iter:   3  Eband: -0.010850510459186  dEband: -2.235319e-05  t[s]:      6.41
BandDavidson: Iter:   4  Eband: -0.010854682236303  dEband: -4.171777e-06  t[s]:      6.46
BandDavidson: Iter:   5  Eband: -0.010855837188177  dEband: -1.154952e-06  t[s]:      6.50
BandDavidson: Iter:   6  Eband: -0.010856295417176  dEband: -4.582290e-07  t[s]:      6.54
BandDavidson: Iter:   7  Eband: -0.010857322263540  dEband: -1.026846e-06  t[s]:      6.58
BandDavidson: Iter:   8  Eband: -0.010858209062105  dEband: -8.867986e-07  t[s]:      6.62
BandDavidson: Iter:   9  Eband: -0.010858440585786  dEband: -2.315237e-07  t[s]:      6.66
BandDavidson: Iter:  10  Eband: -0.010858506079839  dEband: -6.549405e-08  t[s]:      6.70
BandDavidson: Iter:  11  Eband: -0.010858518815095  dEband: -1.273526e-08  t[s]:      6.74
BandDavidson: Iter:  12  Eband: -0.010858520786803  dEband: -1.971708e-09  t[s]:      6.78
BandDavidson: Iter:  13  Eband: -0.010858521179780  dEband: -3.929767e-10  t[s]:      6.81
BandDavidson: Iter:  14  Eband: -0.010858521266304  dEband: -8.652446e-11  t[s]:      6.83
BandDavidson: Iter:  15  Eband: -0.010858521289692  dEband: -2.338832e-11  t[s]:      6.86
BandDavidson: Iter:  16  Eband: -0.010858521296950  dEband: -7.257668e-12  t[s]:      6.88
BandDavidson: Converged (dEband<1.000000e-11)

---- Minimization of quantum number:     4  [ +0.0000000 +0.0350877 +0.0350877 ]  0.003846154 ----
BandDavidson: Iter:   0  Eband: -0.004547405756385
BandDavidson: Iter:   1  Eband: -0.010279678936395  dEband: -5.732273e-03  t[s]:      6.94
BandDavidson: Iter:   2  Eband: -0.010838199407699  dEband: -5.585205e-04  t[s]:      6.99
BandDavidson: Iter:   3  Eband: -0.010868562821752  dEband: -3.036341e-05  t[s]:      7.03
BandDavidson: Iter:   4  Eband: -0.010873953761153  dEband: -5.390939e-06  t[s]:      7.08
BandDavidson: Iter:   5  Eband: -0.010875615169997  dEband: -1.661409e-06  t[s]:      7.12
BandDavidson: Iter:   6  Eband: -0.010876508086052  dEband: -8.929161e-07  t[s]:      7.17
BandDavidson: Iter:   7  Eband: -0.010876874108072  dEband: -3.660220e-07  t[s]:      7.21
BandDavidson: Iter:   8  Eband: -0.010876976758300  dEband: -1.026502e-07  t[s]:      7.26
BandDavidson: Iter:   9  Eband: -0.010876999977669  dEband: -2.321937e-08  t[s]:      7.30
BandDavidson: Iter:  10  Eband: -0.010877005149693  dEband: -5.172025e-09  t[s]:      7.35
BandDavidson: Iter:  11  Eband: -0.010877006376283  dEband: -1.226590e-09  t[s]:      7.39
BandDavidson: Iter:  12  Eband: -0.010877006636038  dEband: -2.597554e-10  t[s]:      7.43
BandDavidson: Iter:  13  Eband: -0.010877006693793  dEband: -5.775434e-11  t[s]:      7.46
BandDavidson: Iter:  14  Eband: -0.010877006708794  dEband: -1.500143e-11  t[s]:      7.49
BandDavidson: Iter:  15  Eband: -0.010877006713085  dEband: -4.291196e-12  t[s]:      7.52
BandDavidson: Converged (dEband<1.000000e-11)

---- Minimization of quantum number:     5  [ +0.0000000 +0.0438596 +0.0438596 ]  0.003846154 ----
BandDavidson: Iter:   0  Eband: -0.005607378806676
BandDavidson: Iter:   1  Eband: -0.010430218101237  dEband: -4.822839e-03  t[s]:      7.59
BandDavidson: Iter:   2  Eband: -0.010865353737232  dEband: -4.351356e-04  t[s]:      7.63
BandDavidson: Iter:   3  Eband: -0.010889040324735  dEband: -2.368659e-05  t[s]:      7.68
BandDavidson: Iter:   4  Eband: -0.010892688584217  dEband: -3.648259e-06  t[s]:      7.72
BandDavidson: Iter:   5  Eband: -0.010893606596369  dEband: -9.180122e-07  t[s]:      7.77
BandDavidson: Iter:   6  Eband: -0.010894022014791  dEband: -4.154184e-07  t[s]:      7.81
BandDavidson: Iter:   7  Eband: -0.010894191794586  dEband: -1.697798e-07  t[s]:      7.86
BandDavidson: Iter:   8  Eband: -0.010894234681062  dEband: -4.288648e-08  t[s]:      7.91
BandDavidson: Iter:   9  Eband: -0.010894243989555  dEband: -9.308493e-09  t[s]:      7.95
BandDavidson: Iter:  10  Eband: -0.010894246119986  dEband: -2.130432e-09  t[s]:      8.00
BandDavidson: Iter:  11  Eband: -0.010894246618880  dEband: -4.988940e-10  t[s]:      8.04
BandDavidson: Iter:  12  Eband: -0.010894246726643  dEband: -1.077623e-10  t[s]:      8.08
BandDavidson: Iter:  13  Eband: -0.010894246753127  dEband: -2.648420e-11  t[s]:      8.11
BandDavidson: Iter:  14  Eband: -0.010894246760726  dEband: -7.599305e-12  t[s]:      8.14
BandDavidson: Converged (dEband<1.000000e-11)

---- Minimization of quantum number:     6  [ +0.0000000 +0.0526316 +0.0526316 ]  0.003846154 ----
BandDavidson: Iter:   0  Eband: -0.005056130376212
BandDavidson: Iter:   1  Eband: -0.010372035468158  dEband: -5.315905e-03  t[s]:      8.21
BandDavidson: Iter:   2  Eband: -0.010873602621249  dEband: -5.015672e-04  t[s]:      8.25
BandDavidson: Iter:   3  Eband: -0.010900952638300  dEband: -2.735002e-05  t[s]:      8.30
BandDavidson: Iter:   4  Eband: -0.010906626907799  dEband: -5.674269e-06  t[s]:      8.35
BandDavidson: Iter:   5  Eband: -0.010907917209685  dEband: -1.290302e-06  t[s]:      8.39
BandDavidson: Iter:   6  Eband: -0.010908285292666  dEband: -3.680830e-07  t[s]:      8.44
BandDavidson: Iter:   7  Eband: -0.010908378214425  dEband: -9.292176e-08  t[s]:      8.49
BandDavidson: Iter:   8  Eband: -0.010908402066650  dEband: -2.385222e-08  t[s]:      8.53
BandDavidson: Iter:   9  Eband: -0.010908408279134  dEband: -6.212484e-09  t[s]:      8.58
BandDavidson: Iter:  10  Eband: -0.010908409912978  dEband: -1.633844e-09  t[s]:      8.62
BandDavidson: Iter:  11  Eband: -0.010908410313440  dEband: -4.004621e-10  t[s]:      8.67
BandDavidson: Iter:  12  Eband: -0.010908410418318  dEband: -1.048776e-10  t[s]:      8.71
BandDavidson: Iter:  13  Eband: -0.010908410447557  dEband: -2.923892e-11  t[s]:      8.75
BandDavidson: Iter:  14  Eband: -0.010908410456293  dEband: -8.736583e-12  t[s]:      8.77
BandDavidson: Converged (dEband<1.000000e-11)

---- Minimization of quantum number:     7  [ +0.0000000 +0.0614035 +0.0614035 ]  0.003846154 ----
BandDavidson: Iter:   0  Eband: -0.004588327255199
BandDavidson: Iter:   1  Eband: -0.010396577270850  dEband: -5.808250e-03  t[s]:      8.84
BandDavidson: Iter:   2  Eband: -0.010895989597520  dEband: -4.994123e-04  t[s]:      8.89
BandDavidson: Iter:   3  Eband: -0.010913276505283  dEband: -1.728691e-05  t[s]:      8.93
BandDavidson: Iter:   4  Eband: -0.010915404593486  dEband: -2.128088e-06  t[s]:      8.98
BandDavidson: Iter:   5  Eband: -0.010916683377235  dEband: -1.278784e-06  t[s]:      9.02
BandDavidson: Iter:   6  Eband: -0.010917682593883  dEband: -9.992166e-07  t[s]:      9.07
BandDavidson: Iter:   7  Eband: -0.010918111974484  dEband: -4.293806e-07  t[s]:      9.11
BandDavidson: Iter:   8  Eband: -0.010918246323094  dEband: -1.343486e-07  t[s]:      9.16
BandDavidson: Iter:   9  Eband: -0.010918271788004  dEband: -2.546491e-08  t[s]:      9.21
BandDavidson: Iter:  10  Eband: -0.010918276787165  dEband: -4.999160e-09  t[s]:      9.25
BandDavidson: Iter:  11  Eband: -0.010918277910842  dEband: -1.123677e-09  t[s]:      9.30
BandDavidson: Iter:  12  Eband: -0.010918278123700  dEband: -2.128579e-10  t[s]:      9.34
BandDavidson: Iter:  13  Eband: -0.010918278171190  dEband: -4.748961e-11  t[s]:      9.38
BandDavidson: Iter:  14  Eband: -0.010918278183609  dEband: -1.241936e-11  t[s]:      9.41
BandDavidson: Iter:  15  Eband: -0.010918278187348  dEband: -3.739424e-12  t[s]:      9.44
BandDavidson: Converged (dEband<1.000000e-11)

---- Minimization of quantum number:     8  [ +0.0000000 +0.0701754 +0.0701754 ]  0.003846154 ----
BandDavidson: Iter:   0  Eband: -0.004765507331155
BandDavidson: Iter:   1  Eband: -0.010370481536900  dEband: -5.604974e-03  t[s]:      9.51
BandDavidson: Iter:   2  Eband: -0.010896168908593  dEband: -5.256874e-04  t[s]:      9.56
BandDavidson: Iter:   3  Eband: -0.010917443546312  dEband: -2.127464e-05  t[s]:      9.60
BandDavidson: Iter:   4  Eband: -0.010921232957509  dEband: -3.789411e-06  t[s]:      9.65
BandDavidson: Iter:   5  Eband: -0.010922422883337  dEband: -1.189926e-06  t[s]:      9.69
BandDavidson: Iter:   6  Eband: -0.010922807595732  dEband: -3.847124e-07  t[s]:      9.74
BandDavidson: Iter:   7  Eband: -0.010922962120979  dEband: -1.545252e-07  t[s]:      9.78
BandDavidson: Iter:   8  Eband: -0.010923009660092  dEband: -4.753911e-08  t[s]:      9.83
BandDavidson: Iter:   9  Eband: -0.010923020621521  dEband: -1.096143e-08  t[s]:      9.87
BandDavidson: Iter:  10  Eband: -0.010923023303066  dEband: -2.681546e-09  t[s]:      9.92
BandDavidson: Iter:  11  Eband: -0.010923023969111  dEband: -6.660450e-10  t[s]:      9.96
BandDavidson: Iter:  12  Eband: -0.010923024125212  dEband: -1.561008e-10  t[s]:     10.00
BandDavidson: Iter:  13  Eband: -0.010923024166090  dEband: -4.087754e-11  t[s]:     10.04
BandDavidson: Iter:  14  Eband: -0.010923024177924  dEband: -1.183422e-11  t[s]:     10.07
BandDavidson: Iter:  15  Eband: -0.010923024181545  dEband: -3.621216e-12  t[s]:     10.10
BandDavidson: Converged (dEband<1.000000e-11)

---- Minimization of quantum number:     9  [ +0.0000000 +0.0789474 +0.0789474 ]  0.003846154 ----
BandDavidson: Iter:   0  Eband: -0.004983599659837
BandDavidson: Iter:   1  Eband: -0.010392726227907  dEband: -5.409127e-03  t[s]:     10.16
BandDavidson: Iter:   2  Eband: -0.010885836078947  dEband: -4.931099e-04  t[s]:     10.21
BandDavidson: Iter:   3  Eband: -0.010915024847055  dEband: -2.918877e-05  t[s]:     10.25
BandDavidson: Iter:   4  Eband: -0.010920263692451  dEband: -5.238845e-06  t[s]:     10.30
BandDavidson: Iter:   5  Eband: -0.010921470593130  dEband: -1.206901e-06  t[s]:     10.34
BandDavidson: Iter:   6  Eband: -0.010921883138812  dEband: -4.125457e-07  t[s]:     10.39
BandDavidson: Iter:   7  Eband: -0.010922024844929  dEband: -1.417061e-07  t[s]:     10.43
BandDavidson: Iter:   8  Eband: -0.010922064747020  dEband: -3.990209e-08  t[s]:     10.48
BandDavidson: Iter:   9  Eband: -0.010922072933074  dEband: -8.186054e-09  t[s]:     10.52
BandDavidson: Iter:  10  Eband: -0.010922074834289  dEband: -1.901215e-09  t[s]:     10.57
BandDavidson: Iter:  11  Eband: -0.010922075273454  dEband: -4.391643e-10  t[s]:     10.61
BandDavidson: Iter:  12  Eband: -0.010922075370375  dEband: -9.692172e-11  t[s]:     10.65
BandDavidson: Iter:  13  Eband: -0.010922075394751  dEband: -2.437556e-11  t[s]:     10.69
BandDavidson: Iter:  14  Eband: -0.010922075401801  dEband: -7.049663e-12  t[s]:     10.72
BandDavidson: Converged (dEband<1.000000e-11)

---- Minimization of quantum number:    10  [ +0.0000000 +0.0877193 +0.0877193 ]  0.003846154 ----
BandDavidson: Iter:   0  Eband: -0.004793658734281
BandDavidson: Iter:   1  Eband: -0.010352848444882  dEband: -5.559190e-03  t[s]:     10.79
BandDavidson: Iter:   2  Eband: -0.010882957811477  dEband: -5.301094e-04  t[s]:     10.83
BandDavidson: Iter:   3  Eband: -0.010908023466876  dEband: -2.506566e-05  t[s]:     10.88
BandDavidson: Iter:   4  Eband: -0.010912702606901  dEband: -4.679140e-06  t[s]:     10.93
BandDavidson: Iter:   5  Eband: -0.010914018859978  dEband: -1.316253e-06  t[s]:     10.97
BandDavidson: Iter:   6  Eband: -0.010914715509206  dEband: -6.966492e-07  t[s]:     11.02
BandDavidson: Iter:   7  Eband: -0.010915031399741  dEband: -3.158905e-07  t[s]:     11.07
BandDavidson: Iter:   8  Eband: -0.010915129534529  dEband: -9.813479e-08  t[s]:     11.12
BandDavidson: Iter:   9  Eband: -0.010915153396908  dEband: -2.386238e-08  t[s]:     11.16
BandDavidson: Iter:  10  Eband: -0.010915158962217  dEband: -5.565309e-09  t[s]:     11.21
BandDavidson: Iter:  11  Eband: -0.010915160420381  dEband: -1.458164e-09  t[s]:     11.26
BandDavidson: Iter:  12  Eband: -0.010915160761560  dEband: -3.411795e-10  t[s]:     11.30
BandDavidson: Iter:  13  Eband: -0.010915160849120  dEband: -8.755963e-11  t[s]:     11.33
BandDavidson: Iter:  14  Eband: -0.010915160875256  dEband: -2.613611e-11  t[s]:     11.36
BandDavidson: Iter:  15  Eband: -0.010915160883324  dEband: -8.067609e-12  t[s]:     11.39
BandDavidson: Converged (dEband<1.000000e-11)

---- Minimization of quantum number:    11  [ +0.0000000 +0.0964912 +0.0964912 ]  0.003846154 ----
BandDavidson: Iter:   0  Eband: -0.004774855538721
BandDavidson: Iter:   1  Eband: -0.010334357742515  dEband: -5.559502e-03  t[s]:     11.46
BandDavidson: Iter:   2  Eband: -0.010866267083108  dEband: -5.319093e-04  t[s]:     11.50
BandDavidson: Iter:   3  Eband: -0.010895392901287  dEband: -2.912582e-05  t[s]:     11.55
BandDavidson: Iter:   4  Eband: -0.010899434895055  dEband: -4.041994e-06  t[s]:     11.59
BandDavidson: Iter:   5  Eband: -0.010900617564916  dEband: -1.182670e-06  t[s]:     11.64
BandDavidson: Iter:   6  Eband: -0.010901241394957  dEband: -6.238300e-07  t[s]:     11.68
BandDavidson: Iter:   7  Eband: -0.010901515325560  dEband: -2.739306e-07  t[s]:     11.73
BandDavidson: Iter:   8  Eband: -0.010901607430044  dEband: -9.210448e-08  t[s]:     11.78
BandDavidson: Iter:   9  Eband: -0.010901633365830  dEband: -2.593579e-08  t[s]:     11.82
BandDavidson: Iter:  10  Eband: -0.010901639035267  dEband: -5.669437e-09  t[s]:     11.87
BandDavidson: Iter:  11  Eband: -0.010901640397832  dEband: -1.362565e-09  t[s]:     11.91
BandDavidson: Iter:  12  Eband: -0.010901640699905  dEband: -3.020740e-10  t[s]:     11.96
BandDavidson: Iter:  13  Eband: -0.010901640775804  dEband: -7.589815e-11  t[s]:     11.99
BandDavidson: Iter:  14  Eband: -0.010901640798907  dEband: -2.310317e-11  t[s]:     12.02
BandDavidson: Iter:  15  Eband: -0.010901640806180  dEband: -7.272788e-12  t[s]:     12.05
BandDavidson: Converged (dEband<1.000000e-11)

---- Minimization of quantum number:    12  [ +0.0000000 +0.1052632 +0.1052632 ]  0.003846154 ----
BandDavidson: Iter:   0  Eband: -0.004112358144313
BandDavidson: Iter:   1  Eband: -0.010347275253731  dEband: -6.234917e-03  t[s]:     12.11
BandDavidson: Iter:   2  Eband: -0.010850245246530  dEband: -5.029700e-04  t[s]:     12.15
BandDavidson: Iter:   3  Eband: -0.010876218990323  dEband: -2.597374e-05  t[s]:     12.20
BandDavidson: Iter:   4  Eband: -0.010880186101429  dEband: -3.967111e-06  t[s]:     12.25
BandDavidson: Iter:   5  Eband: -0.010881108745030  dEband: -9.226436e-07  t[s]:     12.29
BandDavidson: Iter:   6  Eband: -0.010881436059887  dEband: -3.273149e-07  t[s]:     12.34
BandDavidson: Iter:   7  Eband: -0.010881537315309  dEband: -1.012554e-07  t[s]:     12.38
BandDavidson: Iter:   8  Eband: -0.010881564554275  dEband: -2.723897e-08  t[s]:     12.43
BandDavidson: Iter:   9  Eband: -0.010881571183431  dEband: -6.629156e-09  t[s]:     12.47
BandDavidson: Iter:  10  Eband: -0.010881572787028  dEband: -1.603597e-09  t[s]:     12.51
BandDavidson: Iter:  11  Eband: -0.010881573150470  dEband: -3.634424e-10  t[s]:     12.56
BandDavidson: Iter:  12  Eband: -0.010881573245372  dEband: -9.490143e-11  t[s]:     12.60
BandDavidson: Iter:  13  Eband: -0.010881573272105  dEband: -2.673331e-11  t[s]:     12.63
BandDavidson: Iter:  14  Eband: -0.010881573280710  dEband: -8.604896e-12  t[s]:     12.66
BandDavidson: Converged (dEband<1.000000e-11)

---- Minimization of quantum number:    13  [ +0.0000000 +0.1140351 +0.1140351 ]  0.003846154 ----
BandDavidson: Iter:   0  Eband: -0.003884644042479
BandDavidson: Iter:   1  Eband: -0.010356724938150  dEband: -6.472081e-03  t[s]:     12.72
BandDavidson: Iter:   2  Eband: -0.010825223531530  dEband: -4.684986e-04  t[s]:     12.76
BandDavidson: Iter:   3  Eband: -0.010848765516466  dEband: -2.354198e-05  t[s]:     12.80
BandDavidson: Iter:   4  Eband: -0.010852315582931  dEband: -3.550066e-06  t[s]:     12.84
BandDavidson: Iter:   5  Eband: -0.010853455901688  dEband: -1.140319e-06  t[s]:     12.89
BandDavidson: Iter:   6  Eband: -0.010854391912993  dEband: -9.360113e-07  t[s]:     12.94
BandDavidson: Iter:   7  Eband: -0.010854777883223  dEband: -3.859702e-07  t[s]:     12.98
BandDavidson: Iter:   8  Eband: -0.010854889324833  dEband: -1.114416e-07  t[s]:     13.03
BandDavidson: Iter:   9  Eband: -0.010854917200631  dEband: -2.787580e-08  t[s]:     13.08
BandDavidson: Iter:  10  Eband: -0.010854923857813  dEband: -6.657182e-09  t[s]:     13.12
BandDavidson: Iter:  11  Eband: -0.010854925251038  dEband: -1.393225e-09  t[s]:     13.17
BandDavidson: Iter:  12  Eband: -0.010854925527495  dEband: -2.764576e-10  t[s]:     13.20
BandDavidson: Iter:  13  Eband: -0.010854925593054  dEband: -6.555894e-11  t[s]:     13.24
BandDavidson: Iter:  14  Eband: -0.010854925610533  dEband: -1.747848e-11  t[s]:     13.27
BandDavidson: Iter:  15  Eband: -0.010854925615556  dEband: -5.023081e-12  t[s]:     13.29
BandDavidson: Converged (dEband<1.000000e-11)

---- Minimization of quantum number:    14  [ +0.0000000 +0.1228070 +0.1228070 ]  0.003846154 ----
BandDavidson: Iter:   0  Eband: -0.004544303870563
BandDavidson: Iter:   1  Eband: -0.010329730470645  dEband: -5.785427e-03  t[s]:     13.36
BandDavidson: Iter:   2  Eband: -0.010791634627685  dEband: -4.619042e-04  t[s]:     13.40
BandDavidson: Iter:   3  Eband: -0.010814808211573  dEband: -2.317358e-05  t[s]:     13.45
BandDavidson: Iter:   4  Eband: -0.010819119262123  dEband: -4.311051e-06  t[s]:     13.49
BandDavidson: Iter:   5  Eband: -0.010820562177607  dEband: -1.442915e-06  t[s]:     13.54
BandDavidson: Iter:   6  Eband: -0.010821048729237  dEband: -4.865516e-07  t[s]:     13.59
BandDavidson: Iter:   7  Eband: -0.010821193141000  dEband: -1.444118e-07  t[s]:     13.63
BandDavidson: Iter:   8  Eband: -0.010821233643715  dEband: -4.050271e-08  t[s]:     13.68
BandDavidson: Iter:   9  Eband: -0.010821244445769  dEband: -1.080205e-08  t[s]:     13.73
BandDavidson: Iter:  10  Eband: -0.010821247225847  dEband: -2.780079e-09  t[s]:     13.77
BandDavidson: Iter:  11  Eband: -0.010821247857507  dEband: -6.316594e-10  t[s]:     13.82
BandDavidson: Iter:  12  Eband: -0.010821247998964  dEband: -1.414567e-10  t[s]:     13.86
BandDavidson: Iter:  13  Eband: -0.010821248035300  dEband: -3.633675e-11  t[s]:     13.90
BandDavidson: Iter:  14  Eband: -0.010821248046179  dEband: -1.087872e-11  t[s]:     13.93
BandDavidson: Iter:  15  Eband: -0.010821248049586  dEband: -3.406742e-12  t[s]:     13.96
BandDavidson: Converged (dEband<1.000000e-11)

---- Minimization of quantum number:    15  [ +0.0000000 +0.1315789 +0.1315789 ]  0.003846154 ----
BandDavidson: Iter:   0  Eband: -0.004234351990839
BandDavidson: Iter:   1  Eband: -0.010173268749307  dEband: -5.938917e-03  t[s]:     14.02
BandDavidson: Iter:   2  Eband: -0.010740049027239  dEband: -5.667803e-04  t[s]:     14.07
BandDavidson: Iter:   3  Eband: -0.010772705343543  dEband: -3.265632e-05  t[s]:     14.11
BandDavidson: Iter:   4  Eband: -0.010777408139135  dEband: -4.702796e-06  t[s]:     14.16
BandDavidson: Iter:   5  Eband: -0.010779004416964  dEband: -1.596278e-06  t[s]:     14.21
BandDavidson: Iter:   6  Eband: -0.010780040922574  dEband: -1.036506e-06  t[s]:     14.25
BandDavidson: Iter:   7  Eband: -0.010780390503474  dEband: -3.495809e-07  t[s]:     14.30
BandDavidson: Iter:   8  Eband: -0.010780495252138  dEband: -1.047487e-07  t[s]:     14.35
BandDavidson: Iter:   9  Eband: -0.010780523611749  dEband: -2.835961e-08  t[s]:     14.39
BandDavidson: Iter:  10  Eband: -0.010780530555060  dEband: -6.943312e-09  t[s]:     14.44
BandDavidson: Iter:  11  Eband: -0.010780532290381  dEband: -1.735321e-09  t[s]:     14.49
BandDavidson: Iter:  12  Eband: -0.010780532695147  dEband: -4.047661e-10  t[s]:     14.52
BandDavidson: Iter:  13  Eband: -0.010780532805048  dEband: -1.099001e-10  t[s]:     14.56
BandDavidson: Iter:  14  Eband: -0.010780532838496  dEband: -3.344813e-11  t[s]:     14.59
BandDavidson: Iter:  15  Eband: -0.010780532849306  dEband: -1.081038e-11  t[s]:     14.62
BandDavidson: Iter:  16  Eband: -0.010780532853000  dEband: -3.693483e-12  t[s]:     14.64
BandDavidson: Converged (dEband<1.000000e-11)
Setting wave functions to eigenvectors of Hamiltonian

Dumping 'bandstruct.eigenvals' ... done
Dumping 'bandstruct.S' ... done
End date and time: Thu Oct  3 11:40:21 2019  (Duration: 0-0:00:24.21)
Done!

PROFILER:         augmentDensityGridGrad     0.018684 +/-     0.024430 s,    4 calls,      0.074738 s total
PROFILER:    augmentDensitySphericalGrad     0.000575 +/-     0.000178 s,  544 calls,      0.312551 s total
PROFILER:                 augmentOverlap     0.001391 +/-     0.001151 s, 1024 calls,      1.424165 s total
PROFILER:                     changeGrid     0.000418 +/-     0.000143 s,  272 calls,      0.113647 s total
PROFILER:        ColumnBundle::randomize     0.003614 +/-     0.000035 s,   16 calls,      0.057820 s total
PROFILER:                     EnlAndGrad     0.000338 +/-     0.000370 s,  544 calls,      0.183696 s total
PROFILER:            ExCorrCommunication     0.011950 +/-     0.011383 s,    2 calls,      0.023900 s total
PROFILER:               ExCorrFunctional     0.001565 +/-     0.000000 s,    1 calls,      0.001565 s total
PROFILER:                    ExCorrTotal     1.393871 +/-     0.000000 s,    1 calls,      1.393871 s total
PROFILER:                   Idag_DiagV_I     0.016123 +/-     0.022450 s,  272 calls,      4.385535 s total
PROFILER:            matrix::diagonalize     0.001250 +/-     0.001057 s, 1143 calls,      1.429151 s total
PROFILER:                    matrix::set     0.000002 +/-     0.000003 s, 22965 calls,      0.046456 s total
PROFILER:     RadialFunctionR::transform     0.000718 +/-     0.000296 s,  246 calls,      0.176672 s total
PROFILER:                    reduceKmesh     0.000001 +/-     0.000000 s,    1 calls,      0.000001 s total
PROFILER:                            Y*M     0.000634 +/-     0.000394 s, 2720 calls,      1.725390 s total
PROFILER:                          Y1^Y2     0.000514 +/-     0.000321 s, 2144 calls,      1.102410 s total

MEMUSAGE:                   ColumnBundle     0.065602 GB
MEMUSAGE:        complexScalarFieldTilde     0.002930 GB
MEMUSAGE:                    IndexArrays     0.005790 GB
MEMUSAGE:                         matrix     0.008326 GB
MEMUSAGE:                           misc     0.003385 GB
MEMUSAGE:                    ScalarField     0.003296 GB
MEMUSAGE:               ScalarFieldTilde     0.003433 GB
MEMUSAGE:                          Total     0.081707 GB
TACC:  Shutdown complete. Exiting. 
