
*************** JDFTx 1.4.2 (git hash 09de4368) ***************

Start date and time: Thu Jun  6 05:30:58 2019
Executable /sdcc/u/jxuucsc/jdftx_codes/jdftx/build/phonon with command-line: -i phonon-scf.in
Running on hosts (process indices):  ichost003.sdcc.bnl.local (0-1)  ichost004.sdcc.bnl.local (2-3)  ichost051.sdcc.bnl.local (4-5)  ichost071.sdcc.bnl.local (6-7)  ichost077.sdcc.bnl.local (8-9)  ichost078.sdcc.bnl.local (10-11)  ichost163.sdcc.bnl.local (12-13)  ichost165.sdcc.bnl.local (14-15)  ichost169.sdcc.bnl.local (16-17)  ichost170.sdcc.bnl.local (18-19)  ichost171.sdcc.bnl.local (20-21)  ichost172.sdcc.bnl.local (22-23)  ichost175.sdcc.bnl.local (24-25)  ichost176.sdcc.bnl.local (26-27)  ichost179.sdcc.bnl.local (28-29)  ichost180.sdcc.bnl.local (30-31)
Divided in process groups (process indices):  0 (0)  1 (1)  2 (2)  3 (3)  4 (4)  5 (5)  6 (6)  7 (7)  8 (8)  9 (9)  10 (10)  11 (11)  12 (12)  13 (13)  14 (14)  15 (15)  16 (16)  17 (17)  18 (18)  19 (19)  20 (20)  21 (21)  22 (22)  23 (23)  24 (24)  25 (25)  26 (26)  27 (27)  28 (28)  29 (29)  30 (30)  31 (31)
Resource initialization completed at t[s]:      0.16
Run totals: 32 processes, 576 threads, 0 GPUs


Input parsed successfully to the following command list (including defaults):

basis kpoint-dependent
converge-empty-states yes
coords-type Lattice
core-overlap-check vector
coulomb-interaction Periodic
davidson-band-ratio 1.1
dump End State ElecDensity
dump-name totalE.$VAR
dump-only 
elec-cutoff 22 145
elec-eigen-algo Davidson
elec-ex-corr gga-PBE
elec-n-bands 44
electronic-minimize  \
	dirUpdateScheme      FletcherReeves \
	linminMethod         DirUpdateRecommended \
	nIterations          100 \
	history              15 \
	knormThreshold       0 \
	energyDiffThreshold  1e-08 \
	nEnergyDiff          2 \
	alphaTstart          1 \
	alphaTmin            1e-10 \
	updateTestStepSize   yes \
	alphaTreduceFactor   0.1 \
	alphaTincreaseFactor 3 \
	nAlphaAdjustMax      3 \
	wolfeEnergy          0.0001 \
	wolfeGradient        0.9 \
	fdTest               no
electronic-scf  \
	nIterations	50 \
	energyDiffThreshold	2e-09 \
	residualThreshold	1e-07 \
	mixFraction	0.5 \
	qMetric	0.8 \
	history	10 \
	nEigSteps	2 \
	eigDiffThreshold	1e-08 \
	mixedVariable	Density \
	qKerker	0.8 \
	qKappa	-1 \
	verbose	no \
	mixFractionMag	1.5
exchange-regularization WignerSeitzTruncated
fluid None
fluid-ex-corr lda-TF lda-PZ
fluid-gummel-loop 10 1.000000e-05
fluid-minimize  \
	dirUpdateScheme      PolakRibiere \
	linminMethod         DirUpdateRecommended \
	nIterations          100 \
	history              15 \
	knormThreshold       0 \
	energyDiffThreshold  0 \
	nEnergyDiff          2 \
	alphaTstart          1 \
	alphaTmin            1e-10 \
	updateTestStepSize   yes \
	alphaTreduceFactor   0.1 \
	alphaTincreaseFactor 3 \
	nAlphaAdjustMax      3 \
	wolfeEnergy          0.0001 \
	wolfeGradient        0.9 \
	fdTest               no
fluid-solvent H2O 55.338 ScalarEOS \
	epsBulk 78.4 \
	pMol 0.92466 \
	epsInf 1.77 \
	Pvap 1.06736e-10 \
	sigmaBulk 4.62e-05 \
	Rvdw 2.61727 \
	Res 1.42 \
	tauNuc 343133 \
	poleEl 15 7 1
forces-output-coords Positions
initial-state totalE.$VAR
ion Ga   0.000000000000000   0.000000000000000   0.000000000000000 0
ion As   0.250000000000000   0.250000000000000   0.250000000000000 0
ion-species /sdcc/u/jxuucsc/pseudopotentials/psl1.0/rel-pbe/Ga.rel-pbe-dnl-rrkjus_psl.1.0.0.UPF
ion-species /sdcc/u/jxuucsc/pseudopotentials/psl1.0/rel-pbe/As.rel-pbe-dn-rrkjus_psl.1.0.0.UPF
ion-width 0
ionic-minimize  \
	dirUpdateScheme      L-BFGS \
	linminMethod         DirUpdateRecommended \
	nIterations          0 \
	history              15 \
	knormThreshold       0.0001 \
	energyDiffThreshold  1e-06 \
	nEnergyDiff          2 \
	alphaTstart          1 \
	alphaTmin            1e-10 \
	updateTestStepSize   yes \
	alphaTreduceFactor   0.1 \
	alphaTincreaseFactor 3 \
	nAlphaAdjustMax      3 \
	wolfeEnergy          0.0001 \
	wolfeGradient        0.9 \
	fdTest               no
kpoint   0.000000000000   0.000000000000   0.000000000000  1.00000000000000
kpoint-folding 24 24 24 
latt-move-scale 1 1 1
latt-scale 1 1 1 
lattice Face-Centered Cubic 10.6829
lattice-minimize  \
	dirUpdateScheme      L-BFGS \
	linminMethod         DirUpdateRecommended \
	nIterations          0 \
	history              15 \
	knormThreshold       0 \
	energyDiffThreshold  1e-06 \
	nEnergyDiff          2 \
	alphaTstart          1 \
	alphaTmin            1e-10 \
	updateTestStepSize   yes \
	alphaTreduceFactor   0.1 \
	alphaTincreaseFactor 3 \
	nAlphaAdjustMax      3 \
	wolfeEnergy          0.0001 \
	wolfeGradient        0.9 \
	fdTest               no
lcao-params -1 1e-06 0.001
pcm-variant GLSSA13
phonon  \
	supercell 4 4 4 \
	dr 0.1 \
	iPerturbation 3 \
	saveHsub yes \
	T 298 \
	Fcut 1e-08 \
	rSmooth 1
spintype spin-orbit
subspace-rotation-factor 1 yes
symmetries automatic
symmetry-threshold 0.0001


########### Unit cell calculation #############

---------- Setting up symmetries ----------

Found 48 point-group symmetries of the bravais lattice
Found 24 space-group symmetries with basis
Applied RMS atom displacement 0 bohrs to make symmetries exact.

---------- Initializing the Grid ----------
R = 
[          0    5.34145    5.34145  ]
[    5.34145          0    5.34145  ]
[    5.34145    5.34145          0  ]
unit cell volume = 304.795
G =
[  -0.588154   0.588154   0.588154  ]
[   0.588154  -0.588154   0.588154  ]
[   0.588154   0.588154  -0.588154  ]
Minimum fftbox size, Smin = [  44  44  44  ]
Chosen fftbox size, S = [  48  48  48  ]

---------- Initializing tighter grid for wavefunction operations ----------
R = 
[          0    5.34145    5.34145  ]
[    5.34145          0    5.34145  ]
[    5.34145    5.34145          0  ]
unit cell volume = 304.795
G =
[  -0.588154   0.588154   0.588154  ]
[   0.588154  -0.588154   0.588154  ]
[   0.588154   0.588154  -0.588154  ]
Minimum fftbox size, Smin = [  32  32  32  ]
Chosen fftbox size, S = [  32  32  32  ]

---------- Exchange Correlation functional ----------
Initalized PBE GGA exchange.
Initalized PBE GGA correlation.

---------- Setting up pseudopotentials ----------
Width of ionic core gaussian charges (only for fluid interactions / plotting) set to 0

Reading pseudopotential file '/sdcc/u/jxuucsc/pseudopotentials/psl1.0/rel-pbe/Ga.rel-pbe-dnl-rrkjus_psl.1.0.0.UPF':
  'Ga' pseudopotential, 'PBE' functional
  Generated using "atomic" code by A. Dal Corso  v.6.1
  Author: ADC  Date:  4Jun2019.
  13 valence electrons, 5 orbitals, 10 projectors, 1205 radial grid points, with lMax = 2
  Transforming core density to a uniform radial grid of dG=0.02 with 2346 points.
  Transforming local potential to a uniform radial grid of dG=0.02 with 2346 points.
  Transforming nonlocal projectors to a uniform radial grid of dG=0.02 with 453 points.
  Transforming density augmentations to a uniform radial grid of dG=0.02 with 2346 points.
    4S    l: 0   occupation:  2.0   eigenvalue: -0.327043
    4P    l: 1   occupation:  1.0   eigenvalue: -0.096365
    4P    l: 1   occupation:  0.0   eigenvalue: -0.092144
    3D    l: 2   occupation:  4.0   eigenvalue: -0.711348
    3D    l: 2   occupation:  6.0   eigenvalue: -0.694390
  Transforming atomic orbitals to a uniform radial grid of dG=0.02 with 453 points.
  WARNING: large normalization error in atomic orbital 1p (integral: 0.921141).
  WARNING: large normalization error in atomic orbital 2p (integral: 0.926860).
  WARNING: large normalization error in atomic orbital 1d (integral: 3.140769).
  WARNING: large normalization error in atomic orbital 2d (integral: 3.175352).
  Core radius for overlap checks: 2.18 bohrs.

Reading pseudopotential file '/sdcc/u/jxuucsc/pseudopotentials/psl1.0/rel-pbe/As.rel-pbe-dn-rrkjus_psl.1.0.0.UPF':
  'As' pseudopotential, 'PBE' functional
  Generated using "atomic" code by A. Dal Corso  v.6.1
  Author: ADC  Date:  4Jun2019.
  15 valence electrons, 5 orbitals, 10 projectors, 1209 radial grid points, with lMax = 2
  Transforming core density to a uniform radial grid of dG=0.02 with 2346 points.
  Transforming local potential to a uniform radial grid of dG=0.02 with 2346 points.
  Transforming nonlocal projectors to a uniform radial grid of dG=0.02 with 453 points.
  Transforming density augmentations to a uniform radial grid of dG=0.02 with 2346 points.
    4S    l: 0   occupation:  2.0   eigenvalue: -0.529616
    4P    l: 1   occupation:  2.0   eigenvalue: -0.195442
    4P    l: 1   occupation:  1.0   eigenvalue: -0.185480
    3D    l: 2   occupation:  4.0   eigenvalue: -1.504478
    3D    l: 2   occupation:  6.0   eigenvalue: -1.477709
  Transforming atomic orbitals to a uniform radial grid of dG=0.02 with 453 points.
  WARNING: large normalization error in atomic orbital 1p (integral: 0.910925).
  WARNING: large normalization error in atomic orbital 2p (integral: 0.920299).
  WARNING: large normalization error in atomic orbital 1d (integral: 3.461474).
  WARNING: large normalization error in atomic orbital 2d (integral: 3.510726).
  Core radius for overlap checks: 1.78 bohrs.

Initialized 2 species with 2 total atoms.

Folded 1 k-points by 24x24x24 to 13824 k-points.

---------- Setting up k-points, bands, fillings ----------
Adding inversion symmetry to k-mesh for non-inversion-symmetric unit cell.
Reduced to 413 k-points under symmetry. 
Computing the number of bands and number of electrons
Calculating initial fillings.
nElectrons:  28.000000   nBands: 44   nStates: 413

----- Setting up reduced wavefunction bases (one per k-point) -----
average nbasis = 1502.306 , ideal nbasis = 1502.227

---------- Setting up ewald sum ----------
Optimum gaussian width for ewald sums = 2.425994 bohr.
Real space sum over 1331 unit cells with max indices [  5  5  5  ]
Reciprocal space sum over 2197 terms with max indices [  6  6  6  ]

---------- Allocating electronic variables ----------
Initializing wave functions:  reading from 'totalE.wfns'


----- Initializing Supercell corresponding to k-point mesh -----
Lattice vector linear combinations in supercell:
[  24   0   0  ]
[   0  24   0  ]
[   0   0  24  ]
Supercell lattice vectors:
[  0  128.195  128.195  ]
[  128.195  0  128.195  ]
[  128.195  128.195  0  ]

----------- Energy evaluation at fixed state -------------
# Energy components:
   Eewald =      -99.1861145153360724
       EH =       82.8217662017806617
     Eloc =     -183.3259283098674928
      Enl =       21.6834076853396702
      Exc =      -47.9451053848040090
 Exc_core =       16.3921904280305206
       KE =       19.7519818008588430
-------------------------------------
     Etot =     -189.8078020939979069

Fcut=1e-08 reduced nBands from 44 to 28 per unit cell.

------- Configuring supercell and perturbation modes -------

---------- Setting up symmetries ----------

Found 48 point-group symmetries of the bravais lattice
Found 24 space-group symmetries with basis (with translations restricted to unit cells)
Applied RMS atom displacement 0 bohrs to make symmetries exact.

Finding maximally-symmetric orthogonal basis for displacements:
 [ +0.577350 +0.577350 +0.577350 ] |Stabilizer|: 6
 [ -0.816497 +0.408248 +0.408248 ] |Stabilizer|: 2
 [ +0.000000 -0.707107 +0.707107 ] |Stabilizer|: 2

12 signed perturbations of the unit cell reduced to 4 under symmetries:
Ga 0  [ +0.577350 +0.577350 +0.577350 ] 1.500000
Ga 0  [ -0.577350 -0.577350 -0.577350 ] 1.500000
As 0  [ +0.577350 +0.577350 +0.577350 ] 1.500000
As 0  [ -0.577350 -0.577350 -0.577350 ] 1.500000

Calculating unitary rotations of unit cell states under symmetries:
	Matrix elements valid for all available states (all degenerate subspaces are complete).
	RMS unitarity error in valid subspaces: 0.000000e+00

---- Citations for features of the code used in this run ----

   Software package:
      R. Sundararaman, K. Letchworth-Weaver, K.A. Schwarz, D. Gunceler, Y. Ozhabes and T.A. Arias, 'JDFTx: software for joint density-functional theory', SoftwareX 6, 278 (2017)

   gga-PBE exchange-correlation functional:
      J.P. Perdew, K. Burke and M. Ernzerhof, Phys. Rev. Lett. 77, 3865 (1996)

This list may not be complete. Please suggest additional citations or
report any other bugs at https://github.com/shankar1729/jdftx/issues

########### Perturbed supercell calculation 3 of 4 #############

---------- Setting up symmetries ----------

Found 48 point-group symmetries of the bravais lattice
Found 6 space-group symmetries with basis
Applied RMS atom displacement 0 bohrs to make symmetries exact.

---------- Initializing the Grid ----------
R = 
[          0    21.3658    21.3658  ]
[    21.3658          0    21.3658  ]
[    21.3658    21.3658          0  ]
unit cell volume = 19506.9
G =
[  -0.147038   0.147038   0.147038  ]
[   0.147038  -0.147038   0.147038  ]
[   0.147038   0.147038  -0.147038  ]
Minimum fftbox size, Smin = [  164  164  164  ]
Chosen fftbox size, S = [  192  192  192  ]

---------- Initializing tighter grid for wavefunction operations ----------
R = 
[          0    21.3658    21.3658  ]
[    21.3658          0    21.3658  ]
[    21.3658    21.3658          0  ]
unit cell volume = 19506.9
G =
[  -0.147038   0.147038   0.147038  ]
[   0.147038  -0.147038   0.147038  ]
[   0.147038   0.147038  -0.147038  ]
Minimum fftbox size, Smin = [  128  128  128  ]
Chosen fftbox size, S = [  128  128  128  ]

---------- Exchange Correlation functional ----------
Initalized PBE GGA exchange.
Initalized PBE GGA correlation.

---------- Setting up pseudopotentials ----------
Width of ionic core gaussian charges (only for fluid interactions / plotting) set to 0

Reading pseudopotential file '/sdcc/u/jxuucsc/pseudopotentials/psl1.0/rel-pbe/Ga.rel-pbe-dnl-rrkjus_psl.1.0.0.UPF':
  'Ga' pseudopotential, 'PBE' functional
  Generated using "atomic" code by A. Dal Corso  v.6.1
  Author: ADC  Date:  4Jun2019.
  13 valence electrons, 5 orbitals, 10 projectors, 1205 radial grid points, with lMax = 2
  Transforming core density to a uniform radial grid of dG=0.02 with 2346 points.
  Transforming local potential to a uniform radial grid of dG=0.02 with 2346 points.
  Transforming nonlocal projectors to a uniform radial grid of dG=0.02 with 453 points.
  Transforming density augmentations to a uniform radial grid of dG=0.02 with 2346 points.
    4S    l: 0   occupation:  2.0   eigenvalue: -0.327043
    4P    l: 1   occupation:  1.0   eigenvalue: -0.096365
    4P    l: 1   occupation:  0.0   eigenvalue: -0.092144
    3D    l: 2   occupation:  4.0   eigenvalue: -0.711348
    3D    l: 2   occupation:  6.0   eigenvalue: -0.694390
  Transforming atomic orbitals to a uniform radial grid of dG=0.02 with 453 points.
  WARNING: large normalization error in atomic orbital 1p (integral: 0.921141).
  WARNING: large normalization error in atomic orbital 2p (integral: 0.926860).
  WARNING: large normalization error in atomic orbital 1d (integral: 3.140769).
  WARNING: large normalization error in atomic orbital 2d (integral: 3.175352).
  Core radius for overlap checks: 2.18 bohrs.

Reading pseudopotential file '/sdcc/u/jxuucsc/pseudopotentials/psl1.0/rel-pbe/As.rel-pbe-dn-rrkjus_psl.1.0.0.UPF':
  'As' pseudopotential, 'PBE' functional
  Generated using "atomic" code by A. Dal Corso  v.6.1
  Author: ADC  Date:  4Jun2019.
  15 valence electrons, 5 orbitals, 10 projectors, 1209 radial grid points, with lMax = 2
  Transforming core density to a uniform radial grid of dG=0.02 with 2346 points.
  Transforming local potential to a uniform radial grid of dG=0.02 with 2346 points.
  Transforming nonlocal projectors to a uniform radial grid of dG=0.02 with 453 points.
  Transforming density augmentations to a uniform radial grid of dG=0.02 with 2346 points.
    4S    l: 0   occupation:  2.0   eigenvalue: -0.529616
    4P    l: 1   occupation:  2.0   eigenvalue: -0.195442
    4P    l: 1   occupation:  1.0   eigenvalue: -0.185480
    3D    l: 2   occupation:  4.0   eigenvalue: -1.504478
    3D    l: 2   occupation:  6.0   eigenvalue: -1.477709
  Transforming atomic orbitals to a uniform radial grid of dG=0.02 with 453 points.
  WARNING: large normalization error in atomic orbital 1p (integral: 0.910925).
  WARNING: large normalization error in atomic orbital 2p (integral: 0.920299).
  WARNING: large normalization error in atomic orbital 1d (integral: 3.461474).
  WARNING: large normalization error in atomic orbital 2d (integral: 3.510726).
  Core radius for overlap checks: 1.78 bohrs.

Initialized 2 species with 128 total atoms.

Folded 1 k-points by 6x6x6 to 216 k-points.

---------- Setting up k-points, bands, fillings ----------
Adding inversion symmetry to k-mesh for non-inversion-symmetric unit cell.
Reduced to 32 k-points under symmetry. 
Computing the number of bands and number of electrons
Calculating initial fillings.
nElectrons: 1792.000000   nBands: 1792   nStates: 32

----- Setting up reduced wavefunction bases (one per k-point) -----
average nbasis = 96147.588 , ideal nbasis = 96142.518

---------- Setting up ewald sum ----------
Optimum gaussian width for ewald sums = 4.851988 bohr.
Real space sum over 343 unit cells with max indices [  3  3  3  ]
Reciprocal space sum over 12167 terms with max indices [  11  11  11  ]

---------- Allocating electronic variables ----------
Skipped wave function initialization.


-------- Electronic minimization -----------
Will mix electronic density at each iteration.
SCF: Cycle:  0   Etot: -12147.633929870979046   dEtot: -1.911e-01   |Residual|: 1.543e-01   |deigs|: 1.544e-03  t[s]:   1320.60
SCF: Cycle:  1   Etot: -12147.681195603008746   dEtot: -4.727e-02   |Residual|: 6.415e-02   |deigs|: 2.760e-03  t[s]:   2276.90
SCF: Cycle:  2   Etot: -12147.697053526388117   dEtot: -1.586e-02   |Residual|: 1.441e-02   |deigs|: 1.234e-03  t[s]:   3234.29
SCF: Cycle:  3   Etot: -12147.698264004124212   dEtot: -1.210e-03   |Residual|: 5.536e-03   |deigs|: 4.427e-04  t[s]:   4191.61
SCF: Cycle:  4   Etot: -12147.698678005812326   dEtot: -4.140e-04   |Residual|: 2.747e-03   |deigs|: 1.450e-04  t[s]:   5258.00
SCF: Cycle:  5   Etot: -12147.698742855602177   dEtot: -6.485e-05   |Residual|: 1.199e-03   |deigs|: 4.368e-05  t[s]:   5808.00
SCF: Cycle:  6   Etot: -12147.698758493452260   dEtot: -1.564e-05   |Residual|: 6.135e-04   |deigs|: 2.266e-05  t[s]:   6357.61
SCF: Cycle:  7   Etot: -12147.698761017467405   dEtot: -2.524e-06   |Residual|: 2.282e-04   |deigs|: 7.806e-06  t[s]:   6907.15
SCF: Cycle:  8   Etot: -12147.698761869531154   dEtot: -8.521e-07   |Residual|: 2.116e-04   |deigs|: 6.936e-06  t[s]:   7456.14
SCF: Cycle:  9   Etot: -12147.698762196159805   dEtot: -3.266e-07   |Residual|: 2.025e-04   |deigs|: 5.982e-06  t[s]:   8004.45
SCF: Cycle: 10   Etot: -12147.698762610429185   dEtot: -4.143e-07   |Residual|: 1.441e-04   |deigs|: 9.931e-06  t[s]:   8554.44
SCF: Cycle: 11   Etot: -12147.698762451065704   dEtot: +1.594e-07   |Residual|: 1.405e-04   |deigs|: 1.726e-05  t[s]:   9104.06
SCF: Cycle: 12   Etot: -12147.698762733358308   dEtot: -2.823e-07   |Residual|: 8.256e-05   |deigs|: 6.376e-06  t[s]:   9654.35
SCF: Cycle: 13   Etot: -12147.698762876225373   dEtot: -1.429e-07   |Residual|: 2.764e-05   |deigs|: 7.168e-06  t[s]:  10323.48
SCF: Cycle: 14   Etot: -12147.698762885916949   dEtot: -9.692e-09   |Residual|: 2.757e-05   |deigs|: 4.582e-07  t[s]:  11215.68
SCF: Cycle: 15   Etot: -12147.698762896057815   dEtot: -1.014e-08   |Residual|: 1.667e-05   |deigs|: 1.805e-06  t[s]:  12078.77
SCF: Cycle: 16   Etot: -12147.698762903779425   dEtot: -7.722e-09   |Residual|: 4.790e-06   |deigs|: 1.423e-06  t[s]:  12835.00
SCF: Cycle: 17   Etot: -12147.698762905865806   dEtot: -2.086e-09   |Residual|: 2.050e-06   |deigs|: 5.603e-07  t[s]:  13422.97
SCF: Cycle: 18   Etot: -12147.698762906646152   dEtot: -7.803e-10   |Residual|: 2.002e-06   |deigs|: 9.764e-08  t[s]:  13948.80
SCF: Cycle: 19   Etot: -12147.698762908399658   dEtot: -1.754e-09   |Residual|: 1.567e-06   |deigs|: 7.173e-08  t[s]:  14516.48
SCF: Converged (|Delta E|<2.000000e-09 for 2 iters).

Energy change: 8.92355e-06 / unit cell
RMS force: 0.000658731

Dumping 'totalE.phonon.3.wfns' ... done
Dumping 'totalE.phonon.3.n' ... done
Dumping 'totalE.phonon.3.Vscloc' ... done
Dumping 'totalE.phonon.3.dforces' ... done.

Completed supercell calculation for iPerturbation 3.
After completing all supercells, rerun with option collectPerturbations in command phonon.
End date and time: Thu Jun  6 09:40:21 2019  (Duration: 0-4:09:23.17)
Done!

PROFILER:             augmentDensityGrid     1.785726 +/-     1.294836 s,   46 calls,     82.143412 s total
PROFILER:         augmentDensityGridGrad     2.650844 +/-     1.259260 s,   48 calls,    127.240512 s total
PROFILER:        augmentDensitySpherical     0.258583 +/-     0.191680 s,   68 calls,     17.583615 s total
PROFILER:    augmentDensitySphericalGrad     0.363603 +/-     0.279919 s,  140 calls,     50.904419 s total
PROFILER:                 augmentOverlap    10.744455 +/-    12.347336 s,  218 calls,   2342.291094 s total
PROFILER:                     changeGrid     0.008681 +/-     0.009204 s,   91 calls,      0.789966 s total
PROFILER:                     diagouterI    16.077095 +/-    11.882150 s,   34 calls,    546.621235 s total
PROFILER:              EdensityAndVscloc     1.299578 +/-     0.254962 s,   42 calls,     54.582263 s total
PROFILER:                     EnlAndGrad     0.909074 +/-     0.631312 s,  182 calls,    165.451532 s total
PROFILER:            ExCorrCommunication     0.141095 +/-     0.104340 s,  144 calls,     20.317718 s total
PROFILER:               ExCorrFunctional     0.011015 +/-     0.004422 s,   49 calls,      0.539736 s total
PROFILER:                    ExCorrTotal     0.765479 +/-     0.618890 s,   49 calls,     37.508456 s total
PROFILER:                   Idag_DiagV_I    31.833207 +/-    18.169785 s,   57 calls,   1814.492788 s total
PROFILER:                    inv(matrix)     0.000101 +/-     0.000265 s,   19 calls,      0.001915 s total
PROFILER:            matrix::diagonalize     0.524007 +/-     5.120608 s, 3676 calls,   1926.248325 s total
PROFILER:                    matrix::set     0.001036 +/-     0.004763 s, 31837 calls,     32.977660 s total
PROFILER:            phonon::setSupState   113.484995 +/-     0.000000 s,    1 calls,    113.484995 s total
PROFILER:     RadialFunctionR::transform     0.008196 +/-     0.007689 s,  492 calls,      4.032565 s total
PROFILER:                    reduceKmesh     0.040571 +/-     0.020336 s,    2 calls,      0.081142 s total
PROFILER:                            Y*M     7.403250 +/-     5.313741 s,  501 calls,   3709.028051 s total
PROFILER:                          Y1^Y2     5.284838 +/-     6.130291 s,  532 calls,   2811.533977 s total

MEMUSAGE:                   ColumnBundle    40.908372 GB
MEMUSAGE:             complexScalarField     0.210938 GB
MEMUSAGE:        complexScalarFieldTilde     0.562500 GB
MEMUSAGE:                    IndexArrays     0.087171 GB
MEMUSAGE:                         matrix     2.999003 GB
MEMUSAGE:                           misc     0.321689 GB
MEMUSAGE:                     RealKernel     0.053284 GB
MEMUSAGE:                    ScalarField     1.638062 GB
MEMUSAGE:               ScalarFieldTilde     0.481270 GB
MEMUSAGE:                          Total    42.880358 GB
