TACC:  Starting up job 4442047 
TACC:  Starting parallel tasks... 

*************** JDFTx 1.5.0  ***************

Start date and time: Thu Oct  3 11:39:28 2019
Executable /home1/06235/tg855346/jdftx_codes/jdftx-20190827/build/jdftx with command-line: -i totalE.in
Running on hosts (process indices):  c506-084.stampede2.tacc.utexas.edu (0-7)  c506-123.stampede2.tacc.utexas.edu (8-15)
Divided in process groups (process indices):  0 (0)  1 (1)  2 (2)  3 (3)  4 (4)  5 (5)  6 (6)  7 (7)  8 (8)  9 (9)  10 (10)  11 (11)  12 (12)  13 (13)  14 (14)  15 (15)
Resource initialization completed at t[s]:      0.00
Run totals: 16 processes, 96 threads, 0 GPUs


Input parsed successfully to the following command list (including defaults):

basis kpoint-dependent
converge-empty-states yes
coords-type Lattice
core-overlap-check vector
coulomb-interaction Periodic
davidson-band-ratio 1.1
dump End State Vscloc BandEigs EigStats
dump-name totalE.$VAR
elec-cutoff 22 145
elec-eigen-algo Davidson
elec-ex-corr gga-PBE
elec-n-bands 44
electronic-minimize  \
	dirUpdateScheme      FletcherReeves \
	linminMethod         DirUpdateRecommended \
	nIterations          100 \
	history              15 \
	knormThreshold       0 \
	energyDiffThreshold  1e-12 \
	nEnergyDiff          2 \
	alphaTstart          1 \
	alphaTmin            1e-10 \
	updateTestStepSize   yes \
	alphaTreduceFactor   0.1 \
	alphaTincreaseFactor 3 \
	nAlphaAdjustMax      3 \
	wolfeEnergy          0.0001 \
	wolfeGradient        0.9 \
	fdTest               no
exchange-regularization WignerSeitzTruncated
fluid None
fluid-ex-corr lda-TF lda-PZ
fluid-gummel-loop 10 1.000000e-05
fluid-minimize  \
	dirUpdateScheme      PolakRibiere \
	linminMethod         DirUpdateRecommended \
	nIterations          100 \
	history              15 \
	knormThreshold       0 \
	energyDiffThreshold  0 \
	nEnergyDiff          2 \
	alphaTstart          1 \
	alphaTmin            1e-10 \
	updateTestStepSize   yes \
	alphaTreduceFactor   0.1 \
	alphaTincreaseFactor 3 \
	nAlphaAdjustMax      3 \
	wolfeEnergy          0.0001 \
	wolfeGradient        0.9 \
	fdTest               no
fluid-solvent H2O 55.338 ScalarEOS \
	epsBulk 78.4 \
	pMol 0.92466 \
	epsInf 1.77 \
	Pvap 1.06736e-10 \
	sigmaBulk 4.62e-05 \
	Rvdw 2.61727 \
	Res 1.42 \
	tauNuc 343133 \
	poleEl 15 7 1
forces-output-coords Positions
initial-state totalE.$VAR
ion Ga   0.000000000000000   0.000000000000000   0.000000000000000 0
ion As   0.250000000000000   0.250000000000000   0.250000000000000 0
ion-species /home1/06235/tg855346/pseudopotentials/psl/rel-pbe/Ga.rel-pbe-dnl-rrkjus_psl.1.0.0.UPF
ion-species /home1/06235/tg855346/pseudopotentials/psl/rel-pbe/As.rel-pbe-dn-rrkjus_psl.1.0.0.UPF
ion-width 0
ionic-minimize  \
	dirUpdateScheme      L-BFGS \
	linminMethod         DirUpdateRecommended \
	nIterations          0 \
	history              15 \
	knormThreshold       0.0001 \
	energyDiffThreshold  1e-06 \
	nEnergyDiff          2 \
	alphaTstart          1 \
	alphaTmin            1e-10 \
	updateTestStepSize   yes \
	alphaTreduceFactor   0.1 \
	alphaTincreaseFactor 3 \
	nAlphaAdjustMax      3 \
	wolfeEnergy          0.0001 \
	wolfeGradient        0.9 \
	fdTest               no
kpoint   0.000000000000   0.000000000000   0.000000000000  1.00000000000000
kpoint-folding 24 24 24 
latt-move-scale 1 1 1
latt-scale 1 1 1 
lattice Face-Centered Cubic 10.6829
lattice-minimize  \
	dirUpdateScheme      L-BFGS \
	linminMethod         DirUpdateRecommended \
	nIterations          0 \
	history              15 \
	knormThreshold       0 \
	energyDiffThreshold  1e-06 \
	nEnergyDiff          2 \
	alphaTstart          1 \
	alphaTmin            1e-10 \
	updateTestStepSize   yes \
	alphaTreduceFactor   0.1 \
	alphaTincreaseFactor 3 \
	nAlphaAdjustMax      3 \
	wolfeEnergy          0.0001 \
	wolfeGradient        0.9 \
	fdTest               no
lcao-params -1 1e-06 0.001
pcm-variant GLSSA13
spintype spin-orbit
subspace-rotation-factor 1 yes
symmetries automatic
symmetry-threshold 0.0001



---------- Setting up symmetries ----------

Found 48 point-group symmetries of the bravais lattice
Found 24 space-group symmetries with basis
Applied RMS atom displacement 0 bohrs to make symmetries exact.

---------- Initializing the Grid ----------
R = 
[          0    5.34145    5.34145  ]
[    5.34145          0    5.34145  ]
[    5.34145    5.34145          0  ]
unit cell volume = 304.795
G =
[  -0.588154   0.588154   0.588154  ]
[   0.588154  -0.588154   0.588154  ]
[   0.588154   0.588154  -0.588154  ]
Minimum fftbox size, Smin = [  44  44  44  ]
Chosen fftbox size, S = [  48  48  48  ]

---------- Initializing tighter grid for wavefunction operations ----------
R = 
[          0    5.34145    5.34145  ]
[    5.34145          0    5.34145  ]
[    5.34145    5.34145          0  ]
unit cell volume = 304.795
G =
[  -0.588154   0.588154   0.588154  ]
[   0.588154  -0.588154   0.588154  ]
[   0.588154   0.588154  -0.588154  ]
Minimum fftbox size, Smin = [  32  32  32  ]
Chosen fftbox size, S = [  32  32  32  ]

---------- Exchange Correlation functional ----------
Initalized PBE GGA exchange.
Initalized PBE GGA correlation.

---------- Setting up pseudopotentials ----------
Width of ionic core gaussian charges (only for fluid interactions / plotting) set to 0

Reading pseudopotential file '/home1/06235/tg855346/pseudopotentials/psl/rel-pbe/Ga.rel-pbe-dnl-rrkjus_psl.1.0.0.UPF':
  'Ga' pseudopotential, 'PBE' functional
  Generated using "atomic" code by A. Dal Corso  v.6.1 svn rev. 13369
  Author: ADC  Date:  4Jun2019.
  13 valence electrons, 5 orbitals, 10 projectors, 1205 radial grid points, with lMax = 2
  Transforming core density to a uniform radial grid of dG=0.02 with 2346 points.
  Transforming local potential to a uniform radial grid of dG=0.02 with 2346 points.
  Transforming nonlocal projectors to a uniform radial grid of dG=0.02 with 453 points.
  Transforming density augmentations to a uniform radial grid of dG=0.02 with 2346 points.
    4S    l: 0   occupation:  2.0   eigenvalue: -0.327043
    4P    l: 1   occupation:  1.0   eigenvalue: -0.096365
    4P    l: 1   occupation:  0.0   eigenvalue: -0.092144
    3D    l: 2   occupation:  4.0   eigenvalue: -0.711348
    3D    l: 2   occupation:  6.0   eigenvalue: -0.694390
  Transforming atomic orbitals to a uniform radial grid of dG=0.02 with 453 points.
  WARNING: large normalization error in atomic orbital 1p (integral: 0.921141).
  WARNING: large normalization error in atomic orbital 2p (integral: 0.926860).
  WARNING: large normalization error in atomic orbital 1d (integral: 3.140769).
  WARNING: large normalization error in atomic orbital 2d (integral: 3.175352).
  Core radius for overlap checks: 2.18 bohrs.

Reading pseudopotential file '/home1/06235/tg855346/pseudopotentials/psl/rel-pbe/As.rel-pbe-dn-rrkjus_psl.1.0.0.UPF':
  'As' pseudopotential, 'PBE' functional
  Generated using "atomic" code by A. Dal Corso  v.6.1 svn rev. 13369
  Author: ADC  Date:  4Jun2019.
  15 valence electrons, 5 orbitals, 10 projectors, 1209 radial grid points, with lMax = 2
  Transforming core density to a uniform radial grid of dG=0.02 with 2346 points.
  Transforming local potential to a uniform radial grid of dG=0.02 with 2346 points.
  Transforming nonlocal projectors to a uniform radial grid of dG=0.02 with 453 points.
  Transforming density augmentations to a uniform radial grid of dG=0.02 with 2346 points.
    4S    l: 0   occupation:  2.0   eigenvalue: -0.529616
    4P    l: 1   occupation:  2.0   eigenvalue: -0.195442
    4P    l: 1   occupation:  1.0   eigenvalue: -0.185480
    3D    l: 2   occupation:  4.0   eigenvalue: -1.504478
    3D    l: 2   occupation:  6.0   eigenvalue: -1.477709
  Transforming atomic orbitals to a uniform radial grid of dG=0.02 with 453 points.
  WARNING: large normalization error in atomic orbital 1p (integral: 0.910925).
  WARNING: large normalization error in atomic orbital 2p (integral: 0.920299).
  WARNING: large normalization error in atomic orbital 1d (integral: 3.461474).
  WARNING: large normalization error in atomic orbital 2d (integral: 3.510726).
  Core radius for overlap checks: 1.78 bohrs.

Initialized 2 species with 2 total atoms.

Folded 1 k-points by 24x24x24 to 13824 k-points.

---------- Setting up k-points, bands, fillings ----------
Adding inversion symmetry to k-mesh for non-inversion-symmetric unit cell.
Reduced to 413 k-points under symmetry. 
Computing the number of bands and number of electrons
Calculating initial fillings.
Turning on subspace rotations due to non-scalar fillings.
nElectrons:  28.000000   nBands: 44   nStates: 413

----- Setting up reduced wavefunction bases (one per k-point) -----
average nbasis = 1502.306 , ideal nbasis = 1502.227

---------- Setting up ewald sum ----------
Optimum gaussian width for ewald sums = 2.425994 bohr.
Real space sum over 1331 unit cells with max indices [  5  5  5  ]
Reciprocal space sum over 2197 terms with max indices [  6  6  6  ]

---------- Allocating electronic variables ----------
Initializing wave functions:  reading from 'totalE.wfns'


---- Citations for features of the code used in this run ----

   Software package:
      R. Sundararaman, K. Letchworth-Weaver, K.A. Schwarz, D. Gunceler, Y. Ozhabes and T.A. Arias, 'JDFTx: software for joint density-functional theory', SoftwareX 6, 278 (2017)

   gga-PBE exchange-correlation functional:
      J.P. Perdew, K. Burke and M. Ernzerhof, Phys. Rev. Lett. 77, 3865 (1996)

   Total energy minimization:
      T.A. Arias, M.C. Payne and J.D. Joannopoulos, Phys. Rev. Lett. 69, 1077 (1992)

This list may not be complete. Please suggest additional citations or
report any other bugs at https://github.com/shankar1729/jdftx/issues

Initialization completed successfully at t[s]:      4.04


-------- Electronic minimization -----------
ElecMinimize: Iter:   0  Etot: -189.807802093035150  |grad|_K:  7.619e-10  alpha:  1.000e+00
	SubspaceRotationAdjust: set factor to 0.954
ElecMinimize: Iter:   1  Etot: -189.807802093036770  |grad|_K:  7.475e-10  alpha:  3.853e-01  linmin: -2.691e-03  t[s]:     12.46
	SubspaceRotationAdjust: set factor to 0.573
ElecMinimize: Iter:   2  Etot: -189.807802093038163  |grad|_K:  5.706e-10  alpha:  2.147e-01  linmin: -7.477e-03  t[s]:     14.84
	SubspaceRotationAdjust: set factor to 0.302
ElecMinimize: Iter:   3  Etot: -189.807802093038362  |grad|_K:  3.410e-10  alpha:  1.073e-01  linmin: -9.046e-03  t[s]:     17.20
	SubspaceRotationAdjust: set factor to 0.175
ElecMinimize: Iter:   4  Etot: -189.807802093038447  |grad|_K:  2.238e-10  alpha:  6.059e-02  linmin: -7.900e-03  t[s]:     19.60
ElecMinimize: Converged (|Delta Etot|<1.000000e-12 for 2 iters).
Setting wave functions to eigenvectors of Hamiltonian
Converging empty states (this may take a while): |deigs|: 3.932e-06

# Ionic positions in lattice coordinates:
ion Ga   0.000000000000000   0.000000000000000   0.000000000000000 0
ion As   0.250000000000000   0.250000000000000   0.250000000000000 0


# Forces in Lattice coordinates:
force Ga   0.000000000000000   0.000000000000000   0.000000000000000 0
force As  -0.000000000000000   0.000000000000000  -0.000000000000000 0

# Energy components:
   Eewald =      -99.1861145153360866
       EH =       82.8217644579118115
     Eloc =     -183.3259262547487367
      Enl =       21.6834074891227004
      Exc =      -47.9451051124241587
 Exc_core =       16.3921904280458257
       KE =       19.7519814143901726
-------------------------------------
     Etot =     -189.8078020930384469

IonicMinimize: Iter:   0  Etot: -189.807802093038447  |grad|_K:  0.000e+00  t[s]:     25.99
IonicMinimize: Converged (|grad|_K<1.000000e-04).

#--- Lowdin population analysis ---
# oxidation-state Ga +0.021
# oxidation-state As +0.021


Dumping 'totalE.wfns' ... done
Dumping 'totalE.Vscloc' ... done
Dumping 'totalE.eigenvals' ... done
Dumping 'totalE.eigStats' ... 
	eMin: -1.017273 at state 15 ( [ +0.000000 +0.041667 +0.125000 ] spin 0 )
	HOMO: +0.291366 at state 0 ( [ +0.000000 +0.000000 +0.000000 ] spin 0 )
	mu  : +0.299714
	LUMO: +0.306343 at state 0 ( [ +0.000000 +0.000000 +0.000000 ] spin 0 )
	eMax: +0.863825 at state 146 ( [ +0.000000 +0.375000 -0.416667 ] spin 0 )
	HOMO-LUMO gap: +0.014977
	Optical gap  : +0.014977 at state 0 ( [ +0.000000 +0.000000 +0.000000 ] spin 0 )
End date and time: Thu Oct  3 11:39:56 2019  (Duration: 0-0:00:27.25)
Done!

PROFILER:             augmentDensityGrid     0.041375 +/-     0.030083 s,   20 calls,      0.827506 s total
PROFILER:         augmentDensityGridGrad     0.005213 +/-     0.002094 s,   12 calls,      0.062562 s total
PROFILER:        augmentDensitySpherical     0.000499 +/-     0.000068 s,  500 calls,      0.249701 s total
PROFILER:    augmentDensitySphericalGrad     0.000552 +/-     0.000053 s,  536 calls,      0.296094 s total
PROFILER:                 augmentOverlap     0.000942 +/-     0.001063 s, 1372 calls,      1.292781 s total
PROFILER:                     changeGrid     0.000341 +/-     0.000062 s,  493 calls,      0.168047 s total
PROFILER:                     diagouterI     0.007196 +/-     0.008066 s,  250 calls,      1.798956 s total
PROFILER:              EdensityAndVscloc     0.071366 +/-     0.080568 s,   10 calls,      0.713660 s total
PROFILER:                     EnlAndGrad     0.000109 +/-     0.000039 s,  786 calls,      0.085646 s total
PROFILER:            ExCorrCommunication     0.006539 +/-     0.008588 s,   40 calls,      0.261548 s total
PROFILER:               ExCorrFunctional     0.000736 +/-     0.000474 s,   14 calls,      0.010309 s total
PROFILER:                    ExCorrTotal     0.135076 +/-     0.354021 s,   14 calls,      1.891069 s total
PROFILER:                   Idag_DiagV_I     0.013065 +/-     0.016358 s,  243 calls,      3.174880 s total
PROFILER:                    inv(matrix)     0.000116 +/-     0.000087 s,  200 calls,      0.023137 s total
PROFILER:            matrix::diagonalize     0.000424 +/-     0.000422 s, 1357 calls,      0.575774 s total
PROFILER:                    matrix::set     0.000003 +/-     0.000002 s, 11025 calls,      0.034545 s total
PROFILER:     RadialFunctionR::transform     0.000688 +/-     0.000275 s,  246 calls,      0.169349 s total
PROFILER:                    reduceKmesh     0.011200 +/-     0.000000 s,    1 calls,      0.011200 s total
PROFILER:               WavefunctionDrag     0.235554 +/-     0.000000 s,    1 calls,      0.235554 s total
PROFILER:                            Y*M     0.000378 +/-     0.000154 s, 3304 calls,      1.247346 s total
PROFILER:                          Y1^Y2     0.000309 +/-     0.000111 s, 2519 calls,      0.778543 s total

MEMUSAGE:                   ColumnBundle     0.236460 GB
MEMUSAGE:             complexScalarField     0.003296 GB
MEMUSAGE:        complexScalarFieldTilde     0.002930 GB
MEMUSAGE:                    IndexArrays     0.009725 GB
MEMUSAGE:                         matrix     0.014026 GB
MEMUSAGE:                           misc     0.005251 GB
MEMUSAGE:                    ScalarField     0.009064 GB
MEMUSAGE:               ScalarFieldTilde     0.007725 GB
MEMUSAGE:                          Total     0.269521 GB
TACC:  Shutdown complete. Exiting. 
